<?xml version="1.0"?>
<VTKFile type="PolyData" version="0.1" byte_order="LittleEndian" header_type="UInt32" compressor="vtkZLibDataCompressor">
  <PolyData>
    <Piece NumberOfPoints="201" NumberOfVerts="0" NumberOfLines="33" NumberOfStrips="0" NumberOfPolys="0">
      <PointData>
      </PointData>
      <CellData>
        <DataArray type="Float64" Name="forceN" format="ascii" RangeMin="0.45282073782874305" RangeMax="47.00587843425486">
          1.8367364706854683 14.016596605140336 4.627151088084538 13.211487957143454 14.31527506354814 5.304702443760158
          18.06628482369583 6.904547721384179 17.50936194033446 11.262582718174915 12.466960779285452 1.7500292423879682
          18.305482878403097 12.411343763223993 12.421602490788409 20.104987140081803 1.9324943636042762 5.169230505624729
          30.35402328349619 0.6981996672527486 21.089439023941786 4.16775160109822 16.66359958146533 10.736559299152098
          28.310225921091906 0.45282073782874305 19.593662266201555 37.11865868214654 25.556262846700353 47.00587843425486
          16.83494092545387 11.658070104017384 8.07855114111458
        </DataArray>
        <DataArray type="Float64" Name="absForceT" NumberOfComponents="3" format="ascii" RangeMin="2.1354035603182346e-18" RangeMax="0.04721771879501413">
          3.655015502598287e-18 1.1612925509927664e-18 1.7602750246627198e-18 4.2226988360657025e-18 3.0701164877450253e-17 1.3836879221750958e-17
          1.1000742534665219e-17 1.0239847095573486e-17 5.9839912498061736e-18 6.796889133475164e-20 2.819009768108916e-17 5.845324654788833e-18
          2.1885995931200517e-17 6.079443314222346e-18 4.1340214536712044e-17 1.6730559403523257e-17 4.427577775481632e-17 2.915173229401774e-17
          9.635406777681505e-17 8.170114502734551e-17 2.553160782104555e-18 5.940883672924572e-18 5.746305451666061e-17 5.483892621161394e-18
          0.008902575686665953 0.0025934757415134093 0.005301660630919392 0.010952903528944834 0.0063076033734497175 0.005380797311213264
          0.0012201944350441988 0.0015009026161292198 0.00111442066599141 0.001675065096911742 0.0077412727724099715 0.005991540721059821
          0.004627272550739241 0.030706147005734305 0.00035094955249615915 0.02007685531252841 0.004237314581622033 0.02868446555754735
          0.0015644486535460573 0.014885034635098368 0.04478282273961044 0.002892019904499386 0.006053456450772938 0.004357866417193253
          0.0027270198414069847 0.0026333141156291593 0.0037919569242992916 0.013915214610529846 0.008071195535482988 0.011599625029322588
          1.2271770229915734e-16 2.244143167044783e-16 4.743948213879447e-17 0.02466591438392627 0.00989204901781733 0.007393217194660509
          0.0005441003312939032 0.0009307134673208177 0.0007045553549185902 3.075869617543804e-18 3.525951328429085e-18 3.735117932657923e-18
          1.0718552869881887e-17 1.9234663369240108e-17 3.1201266915752105e-17 0.02831249736191481 0.007312130376999703 0.004846521925637132
          0.004136086150736816 0.014830461775039999 0.020763919313542826 5.103485479190386e-19 1.758633509721012e-18 1.0984993871382348e-18
          8.57100335211654e-17 3.108034688354672e-17 9.817205722351056e-17 4.781149630830722e-16 4.567756945256851e-16 3.7141862029613836e-16
          4.5852414709791833e-17 5.0046233128370434e-17 4.1938184185785324e-17 1.0047981261955868e-15 3.7877809626851374e-16 8.030325901133451e-16
          2.3463898006178353e-16 2.811342618251721e-18 2.2469115233566173e-16 8.538488485169111e-17 3.922757677458737e-17 8.426303964926015e-17
          1.1593070182877734e-17 3.122360397192585e-17 8.007584559307305e-18
          <InformationKey name="L2_NORM_RANGE" location="vtkDataArray" length="2">
            <Value index="0">
              2.1354035603e-18
            </Value>
            <Value index="1">
              0.047217718795
            </Value>
          </InformationKey>
        </DataArray>
      </CellData>
      <Points>
        <DataArray type="Float32" Name="Points" NumberOfComponents="3" format="ascii" RangeMin="0.3831342751908489" RangeMax="1.7304244581998827">
          0.5 0.05999999865889549 0.5 0.06324569880962372 0.3374510109424591 0.5885360240936279
          0.8423370122909546 1.1090199947357178 0.22873400151729584 0.5131009817123413 0.610722005367279 0.2925899922847748
          0.7131779789924622 0.34062299132347107 0.5528669953346252 0.5720379948616028 0.9711430072784424 0.5805259943008423
          0.510267972946167 1.0301339626312256 0.9340329766273499 0.6984580159187317 1.1093089580535889 0.32199499011039734
          0.4351813793182373 1.0506930351257324 0.6343874931335449 0.8832700252532959 0.6249539852142334 0.33171600103378296
          0.5130940079689026 0.60800701379776 0.7547770142555237 0.6663782000541687 0.7390122413635254 0.5813092589378357
          0.14221100509166718 0.7963410019874573 0.4403580129146576 0.7403990030288696 0.32254600524902344 0.2285040020942688
          0.2562984824180603 0.9471986889839172 0.13312631845474243 0.21878571808338165 0.8029801845550537 0.5698620676994324
          0.7113029956817627 0.535830020904541 0.44600099325180054 0.5681681036949158 0.40294113755226135 0.6754694581031799
          0.3539699912071228 0.660847008228302 0.12528599798679352 0.17154400050640106 0.4119499921798706 0.4484820067882538
          0.5699660181999207 0.8541169762611389 0.13997800648212433 0.11605700105428696 0.9947519898414612 0.4023360013961792
          0.22593727707862854 0.40325728058815 0.9066821336746216 0.9355170130729675 0.3570399880409241 0.8288879990577698
          0.6085559725761414 0.8532570004463196 0.6012700200080872 0.5779359936714172 0.38973501324653625 0.28230398893356323
          0.7658270001411438 0.7826840281486511 0.8527169823646545 0.29686200618743896 0.4311619997024536 0.29576000571250916
          0.4077169895172119 0.3401249945163727 0.631866991519928 0.13361799716949463 1.0999339818954468 0.5362120270729065
          0.09211929887533188 0.7445080280303955 0.7096400260925293 0.4862079918384552 0.6691550016403198 0.060287900269031525
          0.2523445785045624 0.4375651478767395 0.5638026595115662 0.15596100687980652 0.7933909893035889 0.20522500574588776
          0.6771325469017029 0.47080013155937195 0.6470561623573303 0.7250580191612244 0.60453200340271 0.7907630205154419
          0.33797329664230347 0.9940904974937439 0.5291233658790588 0.7622349858283997 1.1053880453109741 0.8696849942207336
          0.7545418739318848 0.9639800190925598 0.5644718408584595 0.8692269921302795 0.5294550061225891 0.7633649706840515
          0.2503725588321686 0.6537966132164001 0.6020922660827637 0.32323911786079407 1.075242519378662 0.10100319236516953
          0.2626544237136841 0.9716286659240723 0.44276559352874756 0.9353839755058289 0.8023599982261658 0.09599979966878891
          0.8075211644172668 0.46611127257347107 0.5469492673873901 0.2104753702878952 0.719234049320221 0.8020418286323547
          0.3466779887676239 0.6459329724311829 0.335548996925354 0.7121498584747314 0.5754262208938599 0.9093502163887024
          0.07936699688434601 0.2930963933467865 0.8428390026092529 0.5655500292778015 1.1353249549865723 0.10315000265836716
          0.10991299897432327 0.9817489981651306 0.1555889993906021 0.9336270093917847 0.5255579948425293 0.251893013715744
          0.6078019738197327 1.1376140117645264 0.7305139899253845 0.21707256138324738 1.0769071578979492 0.6508472561836243
          0.7132260203361511 1.06597101688385 0.7200869917869568 0.20598499476909637 0.5364159941673279 0.560600996017456
          0.4042620062828064 0.4743350148200989 0.4678109884262085 0.3992820084095001 0.4121350049972534 0.5422000288963318
          0.27931666374206543 0.9439449906349182 0.6006600260734558 0.7903140187263489 0.42378100752830505 0.4404819905757904
          0.17336270213127136 0.549867570400238 0.6541339755058289 0.8722360134124756 0.9749749898910522 0.3198530077934265
          0.9504219889640808 0.5164539813995361 0.6812360286712646 0.8751689791679382 1.0168869495391846 0.48063498735427856
          0.1067962646484375 0.33898022770881653 0.21855096518993378 0.44485849142074585 0.6924787163734436 0.3991917073726654
          0.058404698967933655 0.3668130040168762 0.31699898838996887 0.2706250846385956 0.8260500431060791 0.46473428606987
          0.8143633008003235 0.881584882736206 0.9047031402587891 0.2316066473722458 0.40561577677726746 0.20880728960037231
          0.919279932975769 0.6030666828155518 0.7137075066566467 0.1719689965248108 0.9743490219116211 0.6978549957275391
          0.2372799962759018 0.6752660274505615 0.9176700115203857 0.3729580044746399 0.7771700024604797 0.040920600295066833
          0.9266330003738403 1.1339809894561768 0.6462849974632263 0.7167630195617676 1.1049220561981201 0.42481499910354614
          0.5885523557662964 1.0867738723754883 0.8716159462928772 0.14666199684143066 0.5447450280189514 0.3691509962081909
          0.31959068775177 0.6765949726104736 0.6617315411567688 0.156809002161026 0.6536219716072083 0.5462650060653687
          0.4160259962081909 0.6087849736213684 0.6092100143432617 0.08186040073633194 0.5871570110321045 0.6626129746437073
          0.9247699975967407 0.25457870960235596 0.43741899728775024 0.532073974609375 0.5042830109596252 0.9053120017051697
          0.581167995929718 0.5870590209960938 0.5780450105667114 0.4928779900074005 0.5355389714241028 0.6627910137176514
          0.192548006772995 0.9633550047874451 0.5445560216903687 0.8651450276374817 1.0777299404144287 0.7106559872627258
          0.17072999477386475 0.9191359877586365 0.25606900453567505 0.08260560035705566 0.4323880076408386 0.719743013381958
          0.769743025302887 0.6310669779777527 0.15931899845600128 0.21812599897384644 0.588765025138855 0.9093379974365234
          0.38231900334358215 0.8031460046768188 0.31807801127433777 0.8002059459686279 0.6771082282066345 0.7630224227905273
          0.909841001033783 0.7226660251617432 0.3997589945793152 0.7228249907493591 0.860139012336731 0.6681870222091675
          0.39477598667144775 0.6060749888420105 0.713392972946167 0.039722200483083725 0.2600417137145996 0.2785539925098419
          0.5826414227485657 1.1352119445800781 0.9359840154647827 0.20173199474811554 0.8079079985618591 0.06965970247983932
          0.16549399495124817 0.6214669942855835 0.8415300250053406 0.1631750613451004 0.43745091557502747 0.588555634021759
          0.9423369765281677 1.2090200185775757 0.22873400151729584 0.6131010055541992 0.710722029209137 0.2925899922847748
          0.8132323622703552 0.44037798047065735 0.5529239177703857 0.6720380187034607 1.0711430311203003 0.5805259943008423
          0.6104427576065063 1.1301383972167969 0.9340699315071106 0.7984579801559448 1.2093089818954468 0.32199499011039734
          0.5350769758224487 1.1506799459457397 0.6343240141868591 0.983269989490509 0.7249540090560913 0.33171600103378296
          0.6130939722061157 0.7080069780349731 0.7547770142555237 0.7664110064506531 0.8388969898223877 0.5813019871711731
          0.24215775728225708 0.8962980508804321 0.4403333365917206 0.8403990268707275 0.42254599928855896 0.2285040020942688
          0.3564227819442749 1.047045111656189 0.1332976073026657 0.31891247630119324 0.9027979969978333 0.5697802305221558
          0.8113030195236206 0.6358299851417542 0.44600099325180054 0.668035626411438 0.5031737685203552 0.6755719780921936
          0.4539699852466583 0.7608469724655151 0.12528599798679352 0.2715440094470978 0.5119500160217285 0.4484820067882538
          0.6699659824371338 0.9541170001029968 0.13997800648212433 0.21605700254440308 1.0947519540786743 0.4023360013961792
          0.3258810043334961 0.5032449960708618 0.9066050052642822 1.0355169773101807 0.457040011882782 0.8288879990577698
          0.7084081768989563 0.9532225131988525 0.6013882756233215 0.6779360175132751 0.4897350072860718 0.28230398893356323
          0.8658910393714905 0.8826853632926941 0.8526523113250732 0.3968620002269745 0.5311620235443115 0.29576000571250916
          0.5076196193695068 0.44018492102622986 0.6317967176437378 0.23361800611019135 1.1999340057373047 0.5362120270729065
          0.192119300365448 0.8445079922676086 0.7096400260925293 0.5862079858779907 0.7691550254821777 0.060287900269031525
          0.35222798585891724 0.5375649929046631 0.5638350248336792 0.2559605836868286 0.8933255076408386 0.2053128182888031
          0.7770640254020691 0.5710440278053284 0.6472709774971008 0.8251410126686096 0.7046235799789429 0.7908556461334229
          0.4379569888114929 1.0940649509429932 0.5291500091552734 0.8622350096702576 1.2053879499435425 0.8696849942207336
          0.8543530106544495 1.0639359951019287 0.5646229982376099 0.9692797064781189 0.6294828653335571 0.7634174227714539
          0.35054200887680054 0.7537540197372437 0.6021869778633118 0.4234279990196228 1.1750819683074951 0.10118699818849564
          0.3626070022583008 1.0714540481567383 0.44275999069213867 1.0353840589523315 0.9023600220680237 0.09599979966878891
          0.9076279997825623 0.5656300187110901 0.547061026096344 0.31052300333976746 0.8192359805107117 0.802075982093811
          0.446679025888443 0.7459630370140076 0.33551323413848877 0.8121449947357178 0.6754279732704163 0.9093499779701233
          0.17927727103233337 0.3930768370628357 0.8427159786224365 0.6655499935150146 1.2353249788284302 0.10315000265836716
          0.2099130004644394 1.0817489624023438 0.1555889993906021 1.0336270332336426 0.6255580186843872 0.251893013715744
          0.7078019976615906 1.2376140356063843 0.7305139899253845 0.31714001297950745 1.1769039630889893 0.6509050130844116
          0.8132259845733643 1.165971040725708 0.7200869917869568 0.306113600730896 0.6363757848739624 0.5605044960975647
          0.5042619705200195 0.574334979057312 0.4678109884262085 0.49928200244903564 0.5121350288391113 0.5422000288963318
          0.37924015522003174 1.0437366962432861 0.6003754734992981 0.890313982963562 0.5237810015678406 0.4404819905757904
          0.2733227610588074 0.6497400403022766 0.6544217467308044 0.9722359776496887 1.0749750137329102 0.3198530077934265
          1.050421953201294 0.616454005241394 0.6812360286712646 0.9751690030097961 1.1168869733810425 0.48063498735427856
          0.20664016902446747 0.43921756744384766 0.21864290535449982 0.5448600053787231 0.7925230264663696 0.3991389870643616
          0.15840469300746918 0.46681299805641174 0.31699898838996887 0.3705559968948364 0.9262210130691528 0.46467500925064087
          0.9145079851150513 0.9815880060195923 0.9045569896697998 0.3314169943332672 0.5058709979057312 0.20888200402259827
          1.0193790197372437 0.7031189799308777 0.7138059735298157 0.2720680832862854 1.0743443965911865 0.6979398727416992
          0.3372800052165985 0.7752659916877747 0.9176700115203857 0.4729579985141754 0.8771700263023376 0.040920600295066833
          1.0266330242156982 1.2339810132980347 0.6462849974632263 0.8167629837989807 1.2049219608306885 0.42481499910354614
          0.6886150240898132 1.186898946762085 0.8717960119247437 0.24666200578212738 0.6447449922561646 0.3691509962081909
          0.41935399174690247 0.7764580249786377 0.6616929769515991 0.25699543952941895 0.7533800005912781 0.5461493134498596
          0.5160260200500488 0.7087849974632263 0.6092100143432617 0.18186040222644806 0.6871569752693176 0.6626129746437073
          1.0247700214385986 0.3545787036418915 0.43741899728775024 0.6320632696151733 0.6042868494987488 0.9053114652633667
          0.6813064217567444 0.6865727305412292 0.5780144333839417 0.592877984046936 0.6355389952659607 0.6627910137176514
          0.29251977801322937 1.0633981227874756 0.5445655584335327 0.9651449918746948 1.1777299642562866 0.7106559872627258
          0.27072998881340027 1.0191359519958496 0.25606900453567505 0.18262401223182678 0.5323531627655029 0.7198736667633057
          0.8697429895401001 0.7310670018196106 0.15931899845600128 0.31812599301338196 0.6887649893760681 0.9093379974365234
          0.4823189973831177 0.9031460285186768 0.31807801127433777 0.9005029797554016 0.7774360179901123 0.7633540034294128
          1.009840965270996 0.8226659893989563 0.3997589945793152 0.822825014591217 0.9601389765739441 0.6681870222091675
          0.49477601051330566 0.7060750126838684 0.713392972946167 0.13975326716899872 0.3600615859031677 0.27861061692237854
          0.6836919784545898 1.2350189685821533 0.9359099864959717 0.3017672300338745 0.9078776240348816 0.06961039453744888
          0.26566678285598755 0.7214739918708801 0.8416540026664734
          <InformationKey name="L2_NORM_RANGE" location="vtkDataArray" length="2">
            <Value index="0">
              0.38313427519
            </Value>
            <Value index="1">
              1.7304244582
            </Value>
          </InformationKey>
        </DataArray>
      </Points>
      <Verts>
        <DataArray type="Int64" Name="connectivity" format="ascii" RangeMin="1e+299" RangeMax="-1e+299">
        </DataArray>
        <DataArray type="Int64" Name="offsets" format="ascii" RangeMin="1e+299" RangeMax="-1e+299">
        </DataArray>
      </Verts>
      <Lines>
        <DataArray type="Int64" Name="connectivity" format="ascii" RangeMin="8" RangeMax="200">
          64 197 32 101 60 189
          22 148 15 179 45 200
          69 164 53 171 42 112
          67 112 14 133 14 199
          40 160 40 155 78 160
          58 115 36 186 36 115
          41 114 36 158 8 158
          65 146 17 128 76 106
          98 106 47 183 11 184
          34 117 38 124 44 104
          93 135 68 126 70 139
        </DataArray>
        <DataArray type="Int64" Name="offsets" format="ascii" RangeMin="2" RangeMax="66">
          2 4 6 8 10 12
          14 16 18 20 22 24
          26 28 30 32 34 36
          38 40 42 44 46 48
          50 52 54 56 58 60
          62 64 66
        </DataArray>
      </Lines>
      <Strips>
        <DataArray type="Int64" Name="connectivity" format="ascii" RangeMin="1e+299" RangeMax="-1e+299">
        </DataArray>
        <DataArray type="Int64" Name="offsets" format="ascii" RangeMin="1e+299" RangeMax="-1e+299">
        </DataArray>
      </Strips>
      <Polys>
        <DataArray type="Int64" Name="connectivity" format="ascii" RangeMin="1e+299" RangeMax="-1e+299">
        </DataArray>
        <DataArray type="Int64" Name="offsets" format="ascii" RangeMin="1e+299" RangeMax="-1e+299">
        </DataArray>
      </Polys>
    </Piece>
  </PolyData>
</VTKFile>
