<?xml version="1.0"?>
<VTKFile type="UnstructuredGrid" version="0.1" byte_order="LittleEndian" header_type="UInt32" compressor="vtkZLibDataCompressor">
  <UnstructuredGrid>
    <Piece NumberOfPoints="200" NumberOfCells="200">
      <PointData>
        <DataArray type="Float64" Name="radii" format="ascii" RangeMin="0.0321645" RangeMax="0.063226">
          0.063226 0.0629123 0.0625985 0.0622848 0.061971 0.0616573
          0.0613435 0.0610297 0.060716 0.0604022 0.0600885 0.0597747
          0.059461 0.0591472 0.0588335 0.0585197 0.058206 0.0578922
          0.0575785 0.0572647 0.056951 0.0566372 0.0563234 0.0560097
          0.0556959 0.0553822 0.0550684 0.0547547 0.0544409 0.0541272
          0.0538134 0.0534997 0.0531859 0.0528722 0.0525584 0.0522447
          0.0519309 0.0516172 0.0513034 0.0509896 0.0506759 0.0503621
          0.0500484 0.0497346 0.0494209 0.0491071 0.0487934 0.0484796
          0.0481659 0.0478521 0.0475384 0.0472246 0.0469109 0.0465971
          0.0462833 0.0459696 0.0456558 0.0453421 0.0450283 0.0447146
          0.0444008 0.0440871 0.0437733 0.0434596 0.0431458 0.0428321
          0.0425183 0.0422046 0.0418908 0.041577 0.0412633 0.0409495
          0.0406358 0.040322 0.0400083 0.0396945 0.0393808 0.039067
          0.0387533 0.0384395 0.0381258 0.037812 0.0374983 0.0371845
          0.0368708 0.036557 0.0362432 0.0359295 0.0356157 0.035302
          0.0349882 0.0346745 0.0343607 0.034047 0.0337332 0.0334195
          0.0331057 0.032792 0.0324782 0.0321645 0.063226 0.0629123
          0.0625985 0.0622848 0.061971 0.0616573 0.0613435 0.0610297
          0.060716 0.0604022 0.0600885 0.0597747 0.059461 0.0591472
          0.0588335 0.0585197 0.058206 0.0578922 0.0575785 0.0572647
          0.056951 0.0566372 0.0563234 0.0560097 0.0556959 0.0553822
          0.0550684 0.0547547 0.0544409 0.0541272 0.0538134 0.0534997
          0.0531859 0.0528722 0.0525584 0.0522447 0.0519309 0.0516172
          0.0513034 0.0509896 0.0506759 0.0503621 0.0500484 0.0497346
          0.0494209 0.0491071 0.0487934 0.0484796 0.0481659 0.0478521
          0.0475384 0.0472246 0.0469109 0.0465971 0.0462833 0.0459696
          0.0456558 0.0453421 0.0450283 0.0447146 0.0444008 0.0440871
          0.0437733 0.0434596 0.0431458 0.0428321 0.0425183 0.0422046
          0.0418908 0.041577 0.0412633 0.0409495 0.0406358 0.040322
          0.0400083 0.0396945 0.0393808 0.039067 0.0387533 0.0384395
          0.0381258 0.037812 0.0374983 0.0371845 0.0368708 0.036557
          0.0362432 0.0359295 0.0356157 0.035302 0.0349882 0.0346745
          0.0343607 0.034047 0.0337332 0.0334195 0.0331057 0.032792
          0.0324782 0.0321645
        </DataArray>
        <DataArray type="Float64" Name="id" format="ascii" RangeMin="1" RangeMax="200">
          1 2 3 4 5 6
          7 8 9 10 11 12
          13 14 15 16 17 18
          19 20 21 22 23 24
          25 26 27 28 29 30
          31 32 33 34 35 36
          37 38 39 40 41 42
          43 44 45 46 47 48
          49 50 51 52 53 54
          55 56 57 58 59 60
          61 62 63 64 65 66
          67 68 69 70 71 72
          73 74 75 76 77 78
          79 80 81 82 83 84
          85 86 87 88 89 90
          91 92 93 94 95 96
          97 98 99 100 101 102
          103 104 105 106 107 108
          109 110 111 112 113 114
          115 116 117 118 119 120
          121 122 123 124 125 126
          127 128 129 130 131 132
          133 134 135 136 137 138
          139 140 141 142 143 144
          145 146 147 148 149 150
          151 152 153 154 155 156
          157 158 159 160 161 162
          163 164 165 166 167 168
          169 170 171 172 173 174
          175 176 177 178 179 180
          181 182 183 184 185 186
          187 188 189 190 191 192
          193 194 195 196 197 198
          199 200
        </DataArray>
        <DataArray type="Float64" Name="mask" format="ascii" RangeMin="1" RangeMax="1">
          1 1 1 1 1 1
          1 1 1 1 1 1
          1 1 1 1 1 1
          1 1 1 1 1 1
          1 1 1 1 1 1
          1 1 1 1 1 1
          1 1 1 1 1 1
          1 1 1 1 1 1
          1 1 1 1 1 1
          1 1 1 1 1 1
          1 1 1 1 1 1
          1 1 1 1 1 1
          1 1 1 1 1 1
          1 1 1 1 1 1
          1 1 1 1 1 1
          1 1 1 1 1 1
          1 1 1 1 1 1
          1 1 1 1 1 1
          1 1 1 1 1 1
          1 1 1 1 1 1
          1 1 1 1 1 1
          1 1 1 1 1 1
          1 1 1 1 1 1
          1 1 1 1 1 1
          1 1 1 1 1 1
          1 1 1 1 1 1
          1 1 1 1 1 1
          1 1 1 1 1 1
          1 1 1 1 1 1
          1 1 1 1 1 1
          1 1 1 1 1 1
          1 1 1 1 1 1
          1 1 1 1 1 1
          1 1
        </DataArray>
        <DataArray type="Float64" Name="mass" format="ascii" RangeMin="0.13938595765" RangeMax="1.0587068676">
          1.0587068676 1.0430263919 1.0274965902 1.0121265842 0.99690579833 0.98184315758
          0.96692828229 0.95216522186 0.93755783219 0.92309602392 0.90878823819 0.89462457666
          0.88061329044 0.86674467022 0.85302677909 0.83945009477 0.82602249428 0.81273464045
          0.79959422618 0.7865920974 0.77373576493 0.76101625579 0.74843691421 0.73600090576
          0.72369952545 0.71153983747 0.69951331299 0.68762684105 0.67587206701 0.66425570668
          0.65276957764 0.64142022449 0.63019963503 0.61911418463 0.60815602935 0.59733137727
          0.58663255073 0.57606559254 0.56562298933 0.55530735342 0.5451211353 0.53505706434
          0.52512077879 0.51530516736 0.50561570995 0.49604545264 0.48659971894 0.47727171032
          0.4680665959 0.45897773055 0.45001013098 0.44115730349 0.43242411434 0.42380421929
          0.41529964423 0.40691226809 0.39863596708 0.39047524004 0.38242410768 0.37448692531
          0.36665785617 0.35894111404 0.3513310027 0.34383159637 0.33643733741 0.32915216247
          0.32197065047 0.31489660248 0.30792473202 0.30105653426 0.29429337222 0.28763015762
          0.28107036121 0.27460902436 0.26824948914 0.26198692462 0.25582454617 0.24975764855
          0.24378932244 0.23791498632 0.23213760812 0.22645272806 0.22086319334 0.21536466393
          0.20995986826 0.20464458408 0.19941977234 0.19428627866 0.18924005378 0.18428353783
          0.17941279438 0.17463015172 0.16993178429 0.1653199105 0.16079081366 0.15634660431
          0.15198367265 0.14770402331 0.14350415141 0.13938595765 1.0587068676 1.0430263919
          1.0274965902 1.0121265842 0.99690579833 0.98184315758 0.96692828229 0.95216522186
          0.93755783219 0.92309602392 0.90878823819 0.89462457666 0.88061329044 0.86674467022
          0.85302677909 0.83945009477 0.82602249428 0.81273464045 0.79959422618 0.7865920974
          0.77373576493 0.76101625579 0.74843691421 0.73600090576 0.72369952545 0.71153983747
          0.69951331299 0.68762684105 0.67587206701 0.66425570668 0.65276957764 0.64142022449
          0.63019963503 0.61911418463 0.60815602935 0.59733137727 0.58663255073 0.57606559254
          0.56562298933 0.55530735342 0.5451211353 0.53505706434 0.52512077879 0.51530516736
          0.50561570995 0.49604545264 0.48659971894 0.47727171032 0.4680665959 0.45897773055
          0.45001013098 0.44115730349 0.43242411434 0.42380421929 0.41529964423 0.40691226809
          0.39863596708 0.39047524004 0.38242410768 0.37448692531 0.36665785617 0.35894111404
          0.3513310027 0.34383159637 0.33643733741 0.32915216247 0.32197065047 0.31489660248
          0.30792473202 0.30105653426 0.29429337222 0.28763015762 0.28107036121 0.27460902436
          0.26824948914 0.26198692462 0.25582454617 0.24975764855 0.24378932244 0.23791498632
          0.23213760812 0.22645272806 0.22086319334 0.21536466393 0.20995986826 0.20464458408
          0.19941977234 0.19428627866 0.18924005378 0.18428353783 0.17941279438 0.17463015172
          0.16993178429 0.1653199105 0.16079081366 0.15634660431 0.15198367265 0.14770402331
          0.14350415141 0.13938595765
        </DataArray>
        <DataArray type="Float64" Name="clumpId" format="ascii" RangeMin="-1" RangeMax="-1">
          -1 -1 -1 -1 -1 -1
          -1 -1 -1 -1 -1 -1
          -1 -1 -1 -1 -1 -1
          -1 -1 -1 -1 -1 -1
          -1 -1 -1 -1 -1 -1
          -1 -1 -1 -1 -1 -1
          -1 -1 -1 -1 -1 -1
          -1 -1 -1 -1 -1 -1
          -1 -1 -1 -1 -1 -1
          -1 -1 -1 -1 -1 -1
          -1 -1 -1 -1 -1 -1
          -1 -1 -1 -1 -1 -1
          -1 -1 -1 -1 -1 -1
          -1 -1 -1 -1 -1 -1
          -1 -1 -1 -1 -1 -1
          -1 -1 -1 -1 -1 -1
          -1 -1 -1 -1 -1 -1
          -1 -1 -1 -1 -1 -1
          -1 -1 -1 -1 -1 -1
          -1 -1 -1 -1 -1 -1
          -1 -1 -1 -1 -1 -1
          -1 -1 -1 -1 -1 -1
          -1 -1 -1 -1 -1 -1
          -1 -1 -1 -1 -1 -1
          -1 -1 -1 -1 -1 -1
          -1 -1 -1 -1 -1 -1
          -1 -1 -1 -1 -1 -1
          -1 -1 -1 -1 -1 -1
          -1 -1 -1 -1 -1 -1
          -1 -1 -1 -1 -1 -1
          -1 -1 -1 -1 -1 -1
          -1 -1 -1 -1 -1 -1
          -1 -1 -1 -1 -1 -1
          -1 -1
        </DataArray>
        <DataArray type="Float64" Name="color" NumberOfComponents="3" format="ascii" RangeMin="0.5" RangeMax="1.3346347815">
          0.125 0.125 0.5 0.25 0.25 0.5
          0.375 0.375 0.5 0.5 0.5 0.5
          0.625 0.625 0.5 0.75 0.75 0.5
          0.875 0.875 0.5 0 0 0.5
          0.125 0.125 0.5 0.25 0.25 0.5
          0.375 0.375 0.5 0.5 0.5 0.5
          0.625 0.625 0.5 0.75 0.75 0.5
          0.875 0.875 0.5 0 0 0.5
          0.125 0.125 0.5 0.25 0.25 0.5
          0.375 0.375 0.5 0.5 0.5 0.5
          0.625 0.625 0.5 0.75 0.75 0.5
          0.875 0.875 0.5 0 0 0.5
          0.125 0.125 0.5 0.25 0.25 0.5
          0.375 0.375 0.5 0.5 0.5 0.5
          0.625 0.625 0.5 0.75 0.75 0.5
          0.875 0.875 0.5 0 0 0.5
          0.125 0.125 0.5 0.25 0.25 0.5
          0.375 0.375 0.5 0.5 0.5 0.5
          0.625 0.625 0.5 0.75 0.75 0.5
          0.875 0.875 0.5 0 0 0.5
          0.125 0.125 0.5 0.25 0.25 0.5
          0.375 0.375 0.5 0.5 0.5 0.5
          0.625 0.625 0.5 0.75 0.75 0.5
          0.875 0.875 0.5 0 0 0.5
          0.125 0.125 0.5 0.25 0.25 0.5
          0.375 0.375 0.5 0.5 0.5 0.5
          0.625 0.625 0.5 0.75 0.75 0.5
          0.875 0.875 0.5 0 0 0.5
          0.125 0.125 0.5 0.25 0.25 0.5
          0.375 0.375 0.5 0.5 0.5 0.5
          0.625 0.625 0.5 0.75 0.75 0.5
          0.875 0.875 0.5 0 0 0.5
          0.125 0.125 0.5 0.25 0.25 0.5
          0.375 0.375 0.5 0.5 0.5 0.5
          0.625 0.625 0.5 0.75 0.75 0.5
          0.875 0.875 0.5 0 0 0.5
          0.125 0.125 0.5 0.25 0.25 0.5
          0.375 0.375 0.5 0.5 0.5 0.5
          0.625 0.625 0.5 0.75 0.75 0.5
          0.875 0.875 0.5 0 0 0.5
          0.125 0.125 0.5 0.25 0.25 0.5
          0.375 0.375 0.5 0.5 0.5 0.5
          0.625 0.625 0.5 0.75 0.75 0.5
          0.875 0.875 0.5 0 0 0.5
          0.125 0.125 0.5 0.25 0.25 0.5
          0.375 0.375 0.5 0.5 0.5 0.5
          0.625 0.625 0.5 0.75 0.75 0.5
          0.875 0.875 0.5 0 0 0.5
          0.125 0.125 0.5 0.25 0.25 0.5
          0.375 0.375 0.5 0.5 0.5 0.5
          0.625 0.625 0.5 0.75 0.75 0.5
          0.875 0.875 0.5 0 0 0.5
          0.125 0.125 0.5 0.25 0.25 0.5
          0.375 0.375 0.5 0.5 0.5 0.5
          0.625 0.625 0.5 0.75 0.75 0.5
          0.875 0.875 0.5 0 0 0.5
          0.125 0.125 0.5 0.25 0.25 0.5
          0.375 0.375 0.5 0.5 0.5 0.5
          0.625 0.625 0.5 0.75 0.75 0.5
          0.875 0.875 0.5 0 0 0.5
          0.125 0.125 0.5 0.25 0.25 0.5
          0.375 0.375 0.5 0.5 0.5 0.5
          0.625 0.625 0.5 0.75 0.75 0.5
          0.875 0.875 0.5 0 0 0.5
          0.125 0.125 0.5 0.25 0.25 0.5
          0.375 0.375 0.5 0.5 0.5 0.5
          0.625 0.625 0.5 0.75 0.75 0.5
          0.875 0.875 0.5 0 0 0.5
          0.125 0.125 0.5 0.25 0.25 0.5
          0.375 0.375 0.5 0.5 0.5 0.5
          0.625 0.625 0.5 0.75 0.75 0.5
          0.875 0.875 0.5 0 0 0.5
          0.125 0.125 0.5 0.25 0.25 0.5
          0.375 0.375 0.5 0.5 0.5 0.5
          0.625 0.625 0.5 0.75 0.75 0.5
          0.875 0.875 0.5 0 0 0.5
          0.125 0.125 0.5 0.25 0.25 0.5
          0.375 0.375 0.5 0.5 0.5 0.5
          0.625 0.625 0.5 0.75 0.75 0.5
          0.875 0.875 0.5 0 0 0.5
          0.125 0.125 0.5 0.25 0.25 0.5
          0.375 0.375 0.5 0.5 0.5 0.5
          0.625 0.625 0.5 0.75 0.75 0.5
          0.875 0.875 0.5 0 0 0.5
          0.125 0.125 0.5 0.25 0.25 0.5
          0.375 0.375 0.5 0.5 0.5 0.5
          0.625 0.625 0.5 0.75 0.75 0.5
          0.875 0.875 0.5 0 0 0.5
          0.125 0.125 0.5 0.25 0.25 0.5
          0.375 0.375 0.5 0.5 0.5 0.5
          0.625 0.625 0.5 0.75 0.75 0.5
          0.875 0.875 0.5 0 0 0.5
          0.125 0.125 0.5 0.25 0.25 0.5
          0.375 0.375 0.5 0.5 0.5 0.5
          0.625 0.625 0.5 0.75 0.75 0.5
          0.875 0.875 0.5 0 0 0.5
          0.125 0.125 0.5 0.25 0.25 0.5
          0.375 0.375 0.5 0.5 0.5 0.5
          0.625 0.625 0.5 0.75 0.75 0.5
          0.875 0.875 0.5 0 0 0.5
        </DataArray>
        <DataArray type="Float64" Name="linVelVec" NumberOfComponents="3" format="ascii" RangeMin="0.011657400313" RangeMax="0.38526160967">
          0 -0.02 0 0 -0.02 0
          0 -0.02 0 0 -0.02 0
          0 -0.02 0 0 -0.02 0
          0 -0.02 0 0.037907742965 -0.015283690633 0.023050270797
          0 -0.02 0 0 -0.02 0
          -0.011905880461 0.021822662556 0.0026277327818 0 -0.02 0
          0 -0.02 0 -0.0020062478537 -0.00087171031889 -0.020226016862
          -0.019338782022 0.0051037457752 0.012001555427 0 -0.02 0
          0.029451874867 -0.038116049715 0.02124320754 0 -0.02 0
          0 -0.02 0 0 -0.02 0
          0 -0.02 0 0.020434785709 -0.015541461361 0.028014029013
          0 -0.02 0 0 -0.02 0
          0 -0.02 0 0 -0.02 0
          0 -0.02 0 0 -0.02 0
          0 -0.02 0 0 -0.02 0
          0 -0.02 0 0.042349167424 -0.019945744209 -0.011755897347
          0 -0.02 0 0.02489025172 -0.10857846404 -0.078022912264
          0 -0.02 0 0.0058831383804 -0.010780873491 -0.0097067230591
          0 -0.02 0 0.068596216011 -0.004004651161 -0.05489105243
          0 -0.02 0 -0.061529192376 -0.004516527932 -0.034405579175
          -0.068596644153 0.038289203402 -0.066758414335 0.017231141118 0.043458741904 0.0020291518225
          0 -0.02 0 -0.038792584112 0.15479029746 -0.040581935739
          -0.017275342302 -0.020701120385 -0.012398925891 0 -0.02 0
          0.0017680042042 -0.020637131562 8.9160881924e-05 0 -0.02 0
          0 -0.02 0 0 -0.02 0
          0 -0.02 0 0 -0.02 0
          -0.024477769142 -0.018859349976 -0.020960281261 0 -0.02 0
          0 -0.02 0 0 -0.02 0
          0 -0.02 0 -0.063302292564 0.045727180909 0.049380662698
          0 -0.02 0 -0.003374344161 -0.013618653858 -0.023952157268
          0 -0.02 0 0 -0.02 0
          0 -0.02 0 -0.004980904293 -0.023186097672 -0.0090770193936
          -0.00054709415984 -0.03607277177 0.019136258319 0 -0.02 0
          0.025096118329 -0.082099008725 0.021531741015 -0.052530275504 -0.021121868742 0.053063572597
          0.06882496313 -0.11262994794 -0.027113796586 -0.035963921653 -0.039000678877 -0.03575541633
          0 -0.02 0 0 -0.02 0
          0 -0.02 0 0 -0.02 0
          0 -0.02 0 -0.022719129858 -0.065402452157 -0.065353616733
          0 -0.02 0 0.085935732819 0.029735007362 0.013982959581
          0 -0.02 0 0 -0.02 0
          0 -0.02 0 0 -0.02 0
          0 -0.02 0 0 -0.02 0
          0 -0.02 0 0 -0.02 0
          0 -0.02 0 0 -0.02 0
          0 -0.02 0 0 -0.02 0
          0 -0.02 0 0 -0.02 0
          -0.1077638485 -0.13891546484 -0.12028911927 0 -0.02 0
          0 -0.02 0 0 -0.02 0
          0 -0.02 0 -0.38106803896 0.049956901651 0.026794879118
          0 -0.02 0 0 -0.02 0
          -0.025657349835 -0.020032871008 0.0071223400414 0 -0.02 0
          0 -0.02 0 0.019750512793 -0.1089911844 0.020661527437
          0 -0.02 0 0.063388329379 -0.018409182805 0.013407519836
          0 -0.02 0 0 -0.02 0
          0 -0.02 0 0 -0.02 0
          0 -0.02 0 -0.019337561002 -0.035604299593 -0.0089627547542
          0 -0.02 0 0.043142440701 -0.056659789008 0.041986324073
          0.026672063168 -0.061038006818 -0.017709263099 0 -0.02 0
          -0.018655554789 0.046390666017 0.058479148017 0 -0.02 0
          0 -0.02 0 0 -0.02 0
          0 -0.02 0 0 -0.02 0
          0 -0.02 0 -0.05369004238 -0.032519509194 0.04296305398
          0 -0.02 0 0.023247616525 -0.019503509661 -0.023483630637
          0 -0.02 0 -0.035379525182 0.001762187976 -0.025518735208
          0 -0.02 0 0 -0.02 0
          0 -0.02 0 0 -0.02 0
          -0.00015224808128 -0.04379835467 0.031895803292 0 -0.02 0
          0.030111521015 0.013227520807 0.033611349196 0 -0.02 0
          0 -0.02 0 0 -0.02 0
          0.019142032441 -0.0098867644364 0.01903105412 0 -0.02 0
          0 -0.02 0 0 -0.02 0
          0 -0.02 0 0 -0.02 0
          0 -0.02 0 0.000371060558 -0.0090988204604 -0.012978955381
          0 -0.02 0 -0.032583544702 -0.027109200709 -0.04466875159
          0 -0.02 0 0 -0.02 0
          0 -0.02 0 0 -0.02 0
          0 -0.02 0 0 -0.02 0
          0.046702662254 -0.034605092964 -0.035037683644 0 -0.02 0
          0 -0.02 0 -0.091034096142 -0.029879512052 -0.053869476275
          0 -0.02 0 -0.017867359702 -0.059932754557 0.080548760244
          0 -0.02 0 0 -0.02 0
          0 -0.02 0 -0.061637465992 0.062956459492 0.024282260955
          0 -0.02 0 0 -0.02 0
          0 -0.02 0 0 -0.02 0
          0 -0.02 0 0 -0.02 0
          0.035966755088 -0.021676030189 0.030798284692 0 -0.02 0
          0 -0.02 0 0 -0.02 0
          0 -0.02 0 0 -0.02 0
          0 -0.02 0 0 -0.02 0
          0.067667028131 -0.10783882406 -0.041993833313 0 -0.02 0
          0 -0.02 0 0 -0.02 0
          -0.0038952182835 -0.018596289249 -0.0001964368052 0.050240015845 -0.19648180127 -0.011088414421
          0 -0.02 0 -0.010242456987 -0.0043543009083 0.0034680139185
          0 -0.02 0 0 -0.02 0
          0.0066774857889 -0.03262803856 0.047398896537 0 -0.02 0
          0 -0.02 0 0 -0.02 0
          0 -0.02 0 0 -0.02 0
          0 -0.02 0 0 -0.02 0
          0.011268264838 -0.012792113589 0.020534877293 0 -0.02 0
          0.01278605045 -0.03102148397 -0.017908410691 0.062665455045 -0.017456720267 0.044976494212
        </DataArray>
        <DataArray type="Float64" Name="angVelVec" NumberOfComponents="3" format="ascii" RangeMin="0" RangeMax="0.0044956417001">
          0 0 0 0 0 0
          0 0 0 0 0 0
          0 0 0 0 0 0
          0 0 0 6.8866385125e-06 1.4896747898e-05 -1.4373564247e-05
          0 0 0 0 0 0
          2.6132758416e-18 6.5303017677e-19 6.1562342104e-21 0 0 0
          0 0 0 -0.00019079826084 -9.9380773923e-05 -7.5061523058e-05
          3.2244867745e-18 -9.8061963286e-18 1.3104764303e-17 0 0 0
          6.8824812746e-18 -2.0643172654e-17 -7.4570272381e-21 0 0 0
          0 0 0 0 0 0
          0 0 0 1.9960011915e-18 1.5976280893e-17 2.0017324552e-18
          0 0 0 0 0 0
          0 0 0 0 0 0
          0 0 0 0 0 0
          0 0 0 0 0 0
          0 0 0 2.0523987422e-19 1.5022239684e-17 6.6464752035e-19
          0 0 0 3.9317899554e-17 9.8687796853e-18 0
          0 0 0 0.00059714479431 -0.00079933641003 0.0015890136698
          0 0 0 -8.0000037206e-18 3.2124516602e-17 -8.0288413441e-18
          0 0 0 0.00055348776543 -0.0014843393178 -0.00035448402387
          1.435156742e-17 -2.9026948097e-20 -1.4380594368e-17 0.00019732818159 -4.2323713826e-05 -0.00035205848257
          0 0 0 4.9041807668e-18 -1.3383692256e-18 -4.9620754734e-18
          4.7920945617e-19 -7.6977331098e-18 -2.3912032022e-18 0 0 0
          -1.806582166e-20 2.9472508759e-24 -1.1560624489e-18 0 0 0
          0 0 0 0 0 0
          0 0 0 0 0 0
          3.4124240683e-18 2.7279612742e-17 -3.9805160078e-18 0 0 0
          0 0 0 0 0 0
          0 0 0 -0.00027107343383 -6.1618109197e-05 -0.00026548013959
          0 0 0 -5.7574967482e-18 8.6380503935e-18 1.4392012343e-18
          0 0 0 0 0 0
          0 0 0 -7.0091239196e-18 1.9698927295e-21 2.6282787459e-18
          2.7387017552e-17 4.2744472659e-19 -3.4823457657e-23 0 0 0
          -0.00053729365771 0.00011524082787 0.00095859997443 -2.597882614e-18 -2.3845010801e-17 -5.5605351592e-18
          8.4203329519e-18 8.7489221937e-18 6.7316620967e-17 -7.0202111649e-18 -4.1868625844e-17 -5.3168618347e-21
          0 0 0 0 0 0
          0 0 0 0 0 0
          0 0 0 0.00032401641246 0.0024636852342 -0.0018242100114
          0 0 0 -0.0023125674676 0.0036336502714 0.001288181551
          0 0 0 0 0 0
          0 0 0 0 0 0
          0 0 0 0 0 0
          0 0 0 0 0 0
          0 0 0 0 0 0
          0 0 0 0 0 0
          0 0 0 0 0 0
          2.2794074478e-19 -6.1728432513e-17 1.2331352187e-16 0 0 0
          0 0 0 0 0 0
          0 0 0 1.4543836071e-05 0.00011058524445 -8.1881689769e-05
          0 0 0 0 0 0
          1.0996077169e-19 8.0473602705e-18 3.5609002549e-19 0 0 0
          0 0 0 4.4309343517e-18 -1.1441968457e-18 -4.449728456e-18
          0 0 0 3.187619556e-05 0.00024237325426 -0.0001794627458
          0 0 0 0 0 0
          0 0 0 0 0 0
          0 0 0 -4.5276556972e-05 9.7110915677e-06 8.0779115356e-05
          0 0 0 9.1071259353e-18 -1.3401017611e-20 -9.1205269529e-18
          0.00026354558434 6.7640834332e-05 0.00027542590342 0 0 0
          3.108705422e-17 7.7960712449e-18 0 0 0 0
          0 0 0 0 0 0
          0 0 0 0 0 0
          0 0 0 -6.1628187076e-18 2.4734036897e-17 -6.1819884134e-18
          0 0 0 -9.6096029676e-19 -8.8098094124e-18 -2.057567048e-18
          0 0 0 8.5993349726e-18 -2.5792206912e-17 -1.0122726084e-20
          0 0 0 0 0 0
          0 0 0 0 0 0
          6.6198953294e-05 3.4480939094e-05 2.6043184237e-05 0 0 0
          2.7222079477e-20 -1.699292569e-17 3.3968732463e-17 0 0 0
          0 0 0 0 0 0
          -3.1794023459e-18 -1.8988098136e-17 -1.8586190458e-21 0 0 0
          0 0 0 0 0 0
          0 0 0 0 0 0
          0 0 0 1.6552003715e-17 2.5837509591e-19 -1.8232368143e-23
          0 0 0 3.5364468438e-18 2.8309575505e-17 3.5489196485e-18
          0 0 0 0 0 0
          0 0 0 0 0 0
          0 0 0 0 0 0
          -0.00053298170705 -0.0019194661332 8.9683812646e-05 0 0 0
          0 0 0 -0.00027450114984 -0.0017512604386 0.0013791900864
          0 0 0 -1.7887193e-05 0.0020745431719 0.00016381006007
          0 0 0 0 0 0
          0 0 0 7.5427858388e-18 7.8161981008e-18 6.0303975582e-17
          0 0 0 0 0 0
          0 0 0 0 0 0
          0 0 0 0 0 0
          5.5420681939e-18 4.4298981621e-17 -6.4645205337e-18 0 0 0
          0 0 0 0 0 0
          0 0 0 0 0 0
          0 0 0 0 0 0
          1.3826018575e-17 -4.254851147e-17 5.6971961363e-17 0 0 0
          0 0 0 0 0 0
          -5.1618533427e-20 1.0994224895e-23 -3.3030260773e-18 1.1717373905e-17 2.9261613334e-18 6.7836310156e-20
          0 0 0 0.00067761954717 0.00028993032968 0.00069328734687
          0 0 0 0 0 0
          -1.3750357725e-17 2.0631167539e-17 3.4370499619e-18 0 0 0
          0 0 0 0 0 0
          0 0 0 0 0 0
          0 0 0 0 0 0
          -2.0425157435e-17 7.6799311237e-21 7.6588776067e-18 0 0 0
          -0.0025093148813 -0.0013070226837 -0.00098718403406 2.443154228e-18 -3.9350653024e-17 -1.217428716e-17
        </DataArray>
        <DataArray type="Float64" Name="linVelLen" format="ascii" RangeMin="0.011657400313" RangeMax="0.38526160967">
          0.02 0.02 0.02 0.02 0.02 0.02
          0.02 0.046924440965 0.02 0.02 0.024997671295 0.02
          0.02 0.020343958991 0.023325394824 0.02 0.052645228138 0.02
          0.02 0.02 0.02 0.037998727739 0.02 0.02
          0.02 0.02 0.02 0.02 0.02 0.02
          0.02 0.048264747135 0.02 0.13600140559 0.02 0.015654361149
          0.02 0.087946038676 0.02 0.070639821753 0.10309339732 0.046794144177
          0.02 0.164656595 0.02967671141 0.02 0.020712918376 0.02
          0.02 0.02 0.02 0.02 0.03733858131 0.02
          0.02 0.02 0.02 0.092393750688 0.02 0.027758958359
          0.02 0.02 0.02 0.025392849661 0.040837979353 0.02
          0.088508068897 0.077597074175 0.13474991164 0.063975826766 0.02 0.02
          0.02 0.02 0.02 0.095208901001 0.02 0.092003499915
          0.02 0.02 0.02 0.02 0.02 0.02
          0.02 0.02 0.02 0.02 0.02 0.02
          0.02 0.02 0.21302588019 0.02 0.02 0.02
          0.02 0.38526160967 0.02 0.02 0.033321813411 0.02
          0.02 0.1126767933 0.02 0.067355325708 0.02 0.02
          0.02 0.02 0.02 0.041496245466 0.02 0.082670752321
          0.06892499713 0.02 0.076941109758 0.02 0.02 0.02
          0.02 0.02 0.02 0.076065518708 0.02 0.038370815356
          0.02 0.043658011352 0.02 0.02 0.02 0.02
          0.05418174341 0.02 0.047025459055 0.02 0.02 0.02
          0.028746243892 0.02 0.02 0.02 0.02 0.02
          0.02 0.015854951987 0.02 0.061578352666 0.02 0.02
          0.02 0.02 0.02 0.02 0.067869657402 0.02
          0.02 0.10991775277 0.02 0.10197686202 0.02 0.02
          0.02 0.091391034586 0.02 0.02 0.02 0.02
          0.02 0.02 0.05207679038 0.02 0.02 0.02
          0.02 0.02 0.02 0.02 0.13405790058 0.02
          0.02 0.02 0.019000875946 0.20310615539 0.02 0.011657400313
          0.02 0.02 0.05792955299 0.02 0.02 0.02
          0.02 0.02 0.02 0.02 0.026688820655 0.02
          0.038033231881 0.079085911324
        </DataArray>
        <DataArray type="Float64" Name="angVelLen" format="ascii" RangeMin="0" RangeMax="0.0044956417001">
          0 0 0 0 0 0
          0 2.1816008734e-05 0 0 2.6936400902e-18 0
          0 0.00022784807835 1.668213562e-17 0 2.1760266113e-17 0
          0 0 0 1.6224441586e-17 0 0
          0 0 0 0 0 0
          0 1.5038336505e-17 0 4.0537513957e-17 0 0.0018762955643
          0 3.4065333108e-17 0 0.0016233517302 2.0316737542e-17 0.00040580153173
          0 7.103830951e-18 8.0748120403e-18 0 1.1562035979e-18 0
          0 0 0 0 2.7778884374e-17 0
          0 0 0 0.00038439212066 0 1.048026639e-17
          0 0 0 7.4856977742e-18 2.7390353036e-17 0
          0.0011049338596 2.462220716e-17 6.8403019706e-17 4.2453094388e-17 0 0
          0 0 0 0.0030826082681 0 0.0044956417001
          0 0 0 0 0 0
          0 0 0 0 0 0
          0 0 1.3790096452e-16 0 0 0
          0 0.00013836629133 0 0 8.0559852781e-18 0
          0 6.3829811987e-18 0 0.00030326187257 0 0
          0 0 0 9.3110350597e-05 0 1.2888907412e-17
          0.00038715757228 0 3.2049706191e-17 0 0 0
          0 0 0 2.6229180246e-17 0 9.0977892223e-18
          0 2.7187986352e-17 0 0 0 0
          7.9053678113e-05 0 3.7982035881e-17 0 0 0
          1.9252440717e-17 0 0 0 0 0
          0 1.6554020196e-17 0 2.8749493078e-17 0 0
          0 0 0 0 0.001994107049 0
          0 0.0022459806988 0 0.0020810773795 0 0
          0 6.1274432205e-17 0 0 0 0
          0 0 4.5109913747e-17 0 0 0
          0 0 0 0 7.2438518755e-17 0
          0 0 3.3034293908e-18 1.2077411691e-17 0 0.0010118671811
          0 0 2.5030595759e-17 0 0 0
          0 0 0 0 2.1813883685e-17 0
          0.0029965816836 4.1263254402e-17
        </DataArray>
        <DataArray type="Float64" Name="forceVec" NumberOfComponents="3" format="ascii" RangeMin="0" RangeMax="47.005878434">
          0 0 0 0 0 0
          0 0 0 0 0 0
          0 0 0 0 0 0
          0 0 0 17.918763074 2.2291976474 10.895551741
          0 0 0 0 0 0
          -5.3549207815 18.810624346 1.1818782263 0 0 0
          0 0 0 -0.8602290761 8.2341053061 -8.7152714145
          -8.1698772067 10.605348371 5.0701866342 0 0 0
          12.093473193 -7.4387780939 8.7228457296 0 0 0
          0 0 0 0 0 0
          0 0 0 7.7222296356 1.684865195 10.586397535
          0 0 0 0 0 0
          0 0 0 0 0 0
          0 0 0 0 0 0
          0 0 0 0 0 0
          0 0 0 13.505869597 0.017303094369 -3.7491555614
          0 0 0 7.6584637509 -27.254644252 -24.006814075
          0 0 0 1.6971861978 2.6885402467 -2.93752638
          0 0 0 19.631373447 4.5776674683 -15.709128168
          0 0 0 -16.967921435 4.2771451396 -9.4942419166
          -18.579220203 15.787477053 -18.081340504 4.5858546897 16.889531389 0.53994061557
          0 0 0 -9.9326237908 44.754076241 -10.390777249
          -4.30725403 -0.17481005877 -3.091419121 0 0 0
          0.42552475492 -0.15334536603 0.021459316861 0 0 0
          0 0 0 0 0 0
          0 0 0 0 0 0
          -5.2412282228 0.24423823358 -4.4880567776 0 0 0
          0 0 0 0 0 0
          0 0 0 -12.265465655 12.73692771 9.5676327627
          0 0 0 -0.62413789607 1.1803300924 -4.4303272962
          0 0 0 0 0 0
          0 0 0 -0.84451646343 -0.54020550889 -1.5390161838
          -0.091218531845 -2.679857968 3.1906416062 0 0 0
          4.0154789824 -9.9422157184 3.4459009475 -8.2008367752 -0.17514209368 8.2840931902
          10.489155016 -14.117114472 -4.132233459 -5.364798685 -2.8343632276 -5.3336955952
          0 0 0 0 0 0
          0 0 0 0 0 0
          0 0 0 -2.9421591704 -5.8917648888 -8.4797045968
          0 0 0 10.645763784 6.1632424621 1.7264396179
          0 0 0 0 0 0
          0 0 0 0 0 0
          0 0 0 0 0 0
          0 0 0 0 0 0
          0 0 0 0 0 0
          0 0 0 0 0 0
          0 0 0 0 0 0
          -9.045764199 -9.9818377819 -10.097143186 0 0 0
          0 0 0 0 0 0
          0 0 0 -27.782452996 5.0857697845 1.9338591233
          0 0 0 0 0 0
          -13.505869597 -0.017303094369 3.7491555614 0 0 0
          0 0 0 9.9326237908 -44.754076241 10.390777249
          0 0 0 30.724612167 0.80599510431 6.5458454735
          0 0 0 0 0 0
          0 0 0 0 0 0
          0 0 0 -8.6013336721 -6.9473156707 -3.9858415631
          0 0 0 18.579220203 -15.787477053 18.081340504
          11.283084248 -17.367360423 -7.490289024 0 0 0
          -7.6584637509 27.254644252 24.006814075 0 0 0
          0 0 0 0 0 0
          0 0 0 0 0 0
          0 0 0 -19.631373447 -4.5776674683 15.709128168
          0 0 0 8.2008367752 0.17514209368 -8.2840931902
          0 0 0 -12.093473193 7.4387780939 -8.7228457296
          0 0 0 0 0 0
          0 0 0 0 0 0
          -0.047986878951 -7.4549791253 9.9923020149 0 0 0
          9.045764199 9.9818377819 10.097143186 0 0 0
          0 0 0 0 0 0
          5.364798685 2.8343632276 5.3336955952 0 0 0
          0 0 0 0 0 0