<?xml version="1.0"?>
<VTKFile type="UnstructuredGrid" version="0.1" byte_order="LittleEndian" header_type="UInt32" compressor="vtkZLibDataCompressor">
  <UnstructuredGrid>
    <Piece NumberOfPoints="2" NumberOfCells="2">
      <PointData>
        <DataArray type="Float32" Name="linVelVec" NumberOfComponents="3" format="ascii" RangeMin="0.005184107925742865" RangeMax="0.005184107925742865">
          -0.005184107925742865 0 0 0.005184107925742865 0 0
          <InformationKey name="L2_NORM_RANGE" location="vtkDataArray" length="2">
            <Value index="0">
              0.0051841079257
            </Value>
            <Value index="1">
              0.0051841079257
            </Value>
          </InformationKey>
        </DataArray>
        <DataArray type="Float32" Name="angVelVec" NumberOfComponents="3" format="ascii" RangeMin="2.603801062211516e-32" RangeMax="2.603801062211516e-32">
          0 2.386264258555195e-32 -1.0418842833615677e-32 0 -2.386264258555195e-32 1.0418842833615677e-32
          <InformationKey name="L2_NORM_RANGE" location="vtkDataArray" length="2">
            <Value index="0">
              2.6038010622e-32
            </Value>
            <Value index="1">
              2.6038010622e-32
            </Value>
          </InformationKey>
        </DataArray>
        <DataArray type="Float32" Name="linVelLen" format="ascii" RangeMin="0.005184107925742865" RangeMax="0.005184107925742865">
          0.005184107925742865 0.005184107925742865
        </DataArray>
        <DataArray type="Float32" Name="angVelLen" format="ascii" RangeMin="2.6038010961815736e-32" RangeMax="2.6038010961815736e-32">
          2.6038010961815736e-32 2.6038010961815736e-32
        </DataArray>
      </PointData>
      <CellData>
      </CellData>
      <Points>
        <DataArray type="Float32" Name="Points" NumberOfComponents="3" format="ascii" RangeMin="2.8512742167308147e-10" RangeMax="0.06666667014360428">
          -2.8512742167308147e-10 0 0 0.06666667014360428 0 0
          <InformationKey name="L2_NORM_RANGE" location="vtkDataArray" length="2">
            <Value index="0">
              2.8512742167e-10
            </Value>
            <Value index="1">
              0.066666670144
            </Value>
          </InformationKey>
        </DataArray>
      </Points>
      <Cells>
        <DataArray type="Int64" Name="connectivity" format="ascii" RangeMin="0" RangeMax="1">
          0 1
        </DataArray>
        <DataArray type="Int64" Name="offsets" format="ascii" RangeMin="1" RangeMax="2">
          1 2
        </DataArray>
        <DataArray type="UInt8" Name="types" format="ascii" RangeMin="1" RangeMax="1">
          1 1
        </DataArray>
      </Cells>
    </Piece>
  </UnstructuredGrid>
</VTKFile>
