<?xml version="1.0"?>
<VTKFile type="UnstructuredGrid" version="0.1" byte_order="LittleEndian" header_type="UInt32" compressor="vtkZLibDataCompressor">
  <UnstructuredGrid>
    <Piece NumberOfPoints="1" NumberOfCells="1">
      <PointData>
        <DataArray type="Float32" Name="normalForce" NumberOfComponents="3" format="ascii" RangeMin="103680.5078125" RangeMax="103680.5078125">
          103680.5078125 -5.675258780515509e-43 9.080414048824815e-42
          <InformationKey name="L2_NORM_RANGE" location="vtkDataArray" length="2">
            <Value index="0">
              103680.50781
            </Value>
            <Value index="1">
              103680.50781
            </Value>
          </InformationKey>
        </DataArray>
        <DataArray type="Float32" Name="shearForce" NumberOfComponents="3" format="ascii" RangeMin="0" RangeMax="0">
          0 0 0
          <InformationKey name="L2_NORM_RANGE" location="vtkDataArray" length="2">
            <Value index="0">
              0
            </Value>
            <Value index="1">
              0
            </Value>
          </InformationKey>
        </DataArray>
      </PointData>
      <CellData>
      </CellData>
      <Points>
        <DataArray type="Float32" Name="Points" NumberOfComponents="3" format="ascii" RangeMin="0.03333333507180214" RangeMax="0.03333333507180214">
          0.03333333507180214 2.510587222694648e-33 -4.0226048513352246e-32
          <InformationKey name="L2_NORM_RANGE" location="vtkDataArray" length="2">
            <Value index="0">
              0.033333335072
            </Value>
            <Value index="1">
              0.033333335072
            </Value>
          </InformationKey>
        </DataArray>
      </Points>
      <Cells>
        <DataArray type="Int64" Name="connectivity" format="ascii" RangeMin="0" RangeMax="0">
          0
        </DataArray>
        <DataArray type="Int64" Name="offsets" format="ascii" RangeMin="1" RangeMax="1">
          1
        </DataArray>
        <DataArray type="UInt8" Name="types" format="ascii" RangeMin="1" RangeMax="1">
          1
        </DataArray>
      </Cells>
    </Piece>
  </UnstructuredGrid>
</VTKFile>
