<?xml version="1.0"?>
<VTKFile type="PolyData" version="0.1" byte_order="LittleEndian" header_type="UInt32" compressor="vtkZLibDataCompressor">
  <PolyData>
    <Piece NumberOfPoints="201" NumberOfVerts="0" NumberOfLines="33" NumberOfStrips="0" NumberOfPolys="0">
      <PointData>
      </PointData>
      <CellData>
        <DataArray type="Float64" Name="forceN" format="ascii" RangeMin="0.45282073783" RangeMax="47.005878434">
          1.8367364707 14.016596605 4.6271510881 13.211487957 14.315275064 5.3047024438
          18.066284824 6.9045477214 17.50936194 11.262582718 12.466960779 1.7500292424
          18.305482878 12.411343763 12.421602491 20.10498714 1.9324943636 5.1692305056
          30.354023283 0.69819966725 21.089439024 4.1677516011 16.663599581 10.736559299
          28.310225921 0.45282073783 19.593662266 37.118658682 25.556262847 47.005878434
          16.834940925 11.658070104 8.0785511411
        </DataArray>
        <DataArray type="Float64" Name="absForceT" NumberOfComponents="3" format="ascii" RangeMin="2.1354035603e-18" RangeMax="0.047217718795">
          3.6550155026e-18 1.161292551e-18 1.7602750247e-18 4.2226988361e-18 3.0701164877e-17 1.3836879222e-17
          1.1000742535e-17 1.0239847096e-17 5.9839912498e-18 6.7968891335e-20 2.8190097681e-17 5.8453246548e-18
          2.1885995931e-17 6.0794433142e-18 4.1340214537e-17 1.6730559404e-17 4.4275777755e-17 2.9151732294e-17
          9.6354067777e-17 8.1701145027e-17 2.5531607821e-18 5.9408836729e-18 5.7463054517e-17 5.4838926212e-18
          0.0089025756867 0.0025934757415 0.0053016606309 0.010952903529 0.0063076033734 0.0053807973112
          0.001220194435 0.0015009026161 0.001114420666 0.0016750650969 0.0077412727724 0.0059915407211
          0.0046272725507 0.030706147006 0.0003509495525 0.020076855313 0.0042373145816 0.028684465558
          0.0015644486535 0.014885034635 0.04478282274 0.0028920199045 0.0060534564508 0.0043578664172
          0.0027270198414 0.0026333141156 0.0037919569243 0.013915214611 0.0080711955355 0.011599625029
          1.227177023e-16 2.244143167e-16 4.7439482139e-17 0.024665914384 0.0098920490178 0.0073932171947
          0.00054410033129 0.00093071346732 0.00070455535492 3.0758696175e-18 3.5259513284e-18 3.7351179327e-18
          1.071855287e-17 1.9234663369e-17 3.1201266916e-17 0.028312497362 0.007312130377 0.0048465219256
          0.0041360861507 0.014830461775 0.020763919314 5.1034854792e-19 1.7586335097e-18 1.0984993871e-18
          8.5710033521e-17 3.1080346884e-17 9.8172057224e-17 4.7811496308e-16 4.5677569453e-16 3.714186203e-16
          4.585241471e-17 5.0046233128e-17 4.1938184186e-17 1.0047981262e-15 3.7877809627e-16 8.0303259011e-16
          2.3463898006e-16 2.8113426183e-18 2.2469115234e-16 8.5384884852e-17 3.9227576775e-17 8.4263039649e-17
          1.1593070183e-17 3.1223603972e-17 8.0075845593e-18
        </DataArray>
      </CellData>
      <Points>
        <DataArray type="Float32" Name="Points" NumberOfComponents="3" format="ascii" RangeMin="0.38313427519" RangeMax="1.7304244582">
          0.5 0.059999998659 0.5 0.06324569881 0.33745101094 0.58853602409
          0.84233701229 1.1090199947 0.22873400152 0.51310098171 0.61072200537 0.29258999228
          0.71317797899 0.34062299132 0.55286699533 0.57203799486 0.97114300728 0.5805259943
          0.51026797295 1.0301339626 0.93403297663 0.69845801592 1.1093089581 0.32199499011
          0.43518137932 1.0506930351 0.63438749313 0.88327002525 0.62495398521 0.33171600103
          0.51309400797 0.6080070138 0.75477701426 0.66637820005 0.73901224136 0.58130925894
          0.14221100509 0.79634100199 0.44035801291 0.74039900303 0.32254600525 0.22850400209
          0.25629848242 0.94719868898 0.13312631845 0.21878571808 0.80298018456 0.5698620677
          0.71130299568 0.5358300209 0.44600099325 0.56816810369 0.40294113755 0.6754694581
          0.35396999121 0.66084700823 0.12528599799 0.17154400051 0.41194999218 0.44848200679
          0.5699660182 0.85411697626 0.13997800648 0.11605700105 0.99475198984 0.4023360014
          0.22593727708 0.40325728059 0.90668213367 0.93551701307 0.35703998804 0.82888799906
          0.60855597258 0.85325700045 0.60127002001 0.57793599367 0.38973501325 0.28230398893
          0.76582700014 0.78268402815 0.85271698236 0.29686200619 0.4311619997 0.29576000571
          0.40771698952 0.34012499452 0.63186699152 0.13361799717 1.0999339819 0.53621202707
          0.092119298875 0.74450802803 0.70964002609 0.48620799184 0.66915500164 0.060287900269
          0.2523445785 0.43756514788 0.56380265951 0.15596100688 0.7933909893 0.20522500575
          0.6771325469 0.47080013156 0.64705616236 0.72505801916 0.6045320034 0.79076302052
          0.33797329664 0.99409049749 0.52912336588 0.76223498583 1.1053880453 0.86968499422
          0.75454187393 0.96398001909 0.56447184086 0.86922699213 0.52945500612 0.76336497068
          0.25037255883 0.65379661322 0.60209226608 0.32323911786 1.0752425194 0.10100319237
          0.26265442371 0.97162866592 0.44276559353 0.93538397551 0.80235999823 0.095999799669
          0.80752116442 0.46611127257 0.54694926739 0.21047537029 0.71923404932 0.80204182863
          0.34667798877 0.64593297243 0.33554899693 0.71214985847 0.57542622089 0.90935021639
          0.079366996884 0.29309639335 0.84283900261 0.56555002928 1.135324955 0.10315000266
          0.10991299897 0.98174899817 0.15558899939 0.93362700939 0.52555799484 0.25189301372
          0.60780197382 1.1376140118 0.73051398993 0.21707256138 1.0769071579 0.65084725618
          0.71322602034 1.0659710169 0.72008699179 0.20598499477 0.53641599417 0.56060099602
          0.40426200628 0.47433501482 0.46781098843 0.39928200841 0.412135005 0.5422000289
          0.27931666374 0.94394499063 0.60066002607 0.79031401873 0.42378100753 0.44048199058
          0.17336270213 0.5498675704 0.65413397551 0.87223601341 0.97497498989 0.31985300779
          0.95042198896 0.5164539814 0.68123602867 0.87516897917 1.0168869495 0.48063498735
          0.10679626465 0.33898022771 0.21855096519 0.44485849142 0.69247871637 0.39919170737
          0.058404698968 0.36681300402 0.31699898839 0.27062508464 0.82605004311 0.46473428607
          0.8143633008 0.88158488274 0.90470314026 0.23160664737 0.40561577678 0.2088072896
          0.91927993298 0.60306668282 0.71370750666 0.17196899652 0.97434902191 0.69785499573
          0.23727999628 0.67526602745 0.91767001152 0.37295800447 0.77717000246 0.040920600295
          0.92663300037 1.1339809895 0.64628499746 0.71676301956 1.1049220562 0.4248149991
          0.58855235577 1.0867738724 0.87161594629 0.14666199684 0.54474502802 0.36915099621
          0.31959068775 0.67659497261 0.66173154116 0.15680900216 0.65362197161 0.54626500607
          0.41602599621 0.60878497362 0.60921001434 0.081860400736 0.58715701103 0.66261297464
          0.9247699976 0.2545787096 0.43741899729 0.53207397461 0.50428301096 0.90531200171
          0.58116799593 0.587059021 0.57804501057 0.49287799001 0.53553897142 0.66279101372
          0.19254800677 0.96335500479 0.54455602169 0.86514502764 1.0777299404 0.71065598726
          0.17072999477 0.91913598776 0.25606900454 0.082605600357 0.43238800764 0.71974301338
          0.7697430253 0.63106697798 0.15931899846 0.21812599897 0.58876502514 0.90933799744
          0.38231900334 0.80314600468 0.31807801127 0.80020594597 0.67710822821 0.76302242279
          0.90984100103 0.72266602516 0.39975899458 0.72282499075 0.86013901234 0.66818702221
          0.39477598667 0.60607498884 0.71339297295 0.039722200483 0.26004171371 0.27855399251
          0.58264142275 1.1352119446 0.93598401546 0.20173199475 0.80790799856 0.06965970248
          0.16549399495 0.62146699429 0.84153002501 0.16317506135 0.43745091558 0.58855563402
          0.94233697653 1.2090200186 0.22873400152 0.61310100555 0.71072202921 0.29258999228
          0.81323236227 0.44037798047 0.55292391777 0.6720380187 1.0711430311 0.5805259943
          0.61044275761 1.1301383972 0.93406993151 0.79845798016 1.2093089819 0.32199499011
          0.53507697582 1.1506799459 0.63432401419 0.98326998949 0.72495400906 0.33171600103
          0.61309397221 0.70800697803 0.75477701426 0.76641100645 0.83889698982 0.58130198717
          0.24215775728 0.89629805088 0.44033333659 0.84039902687 0.42254599929 0.22850400209
          0.35642278194 1.0470451117 0.1332976073 0.3189124763 0.902797997 0.56978023052
          0.81130301952 0.63582998514 0.44600099325 0.66803562641 0.50317376852 0.67557197809
          0.45396998525 0.76084697247 0.12528599799 0.27154400945 0.51195001602 0.44848200679
          0.66996598244 0.9541170001 0.13997800648 0.21605700254 1.0947519541 0.4023360014
          0.32588100433 0.50324499607 0.90660500526 1.0355169773 0.45704001188 0.82888799906
          0.7084081769 0.9532225132 0.60138827562 0.67793601751 0.48973500729 0.28230398893
          0.86589103937 0.88268536329 0.85265231133 0.39686200023 0.53116202354 0.29576000571
          0.50761961937 0.44018492103 0.63179671764 0.23361800611 1.1999340057 0.53621202707
          0.19211930037 0.84450799227 0.70964002609 0.58620798588 0.76915502548 0.060287900269
          0.35222798586 0.5375649929 0.56383502483 0.25596058369 0.89332550764 0.20531281829
          0.7770640254 0.57104402781 0.6472709775 0.82514101267 0.70462357998 0.79085564613
          0.43795698881 1.0940649509 0.52915000916 0.86223500967 1.2053879499 0.86968499422
          0.85435301065 1.0639359951 0.56462299824 0.96927970648 0.62948286533 0.76341742277
          0.35054200888 0.75375401974 0.60218697786 0.42342799902 1.1750819683 0.10118699819
          0.36260700226 1.0714540482 0.44275999069 1.035384059 0.90236002207 0.095999799669
          0.90762799978 0.56563001871 0.5470610261 0.31052300334 0.81923598051 0.80207598209
          0.44667902589 0.74596303701 0.33551323414 0.81214499474 0.67542797327 0.90934997797
          0.17927727103 0.39307683706 0.84271597862 0.66554999352 1.2353249788 0.10315000266
          0.20991300046 1.0817489624 0.15558899939 1.0336270332 0.62555801868 0.25189301372
          0.70780199766 1.2376140356 0.73051398993 0.31714001298 1.1769039631 0.65090501308
          0.81322598457 1.1659710407 0.72008699179 0.30611360073 0.63637578487 0.5605044961
          0.50426197052 0.57433497906 0.46781098843 0.49928200245 0.51213502884 0.5422000289
          0.37924015522 1.0437366962 0.6003754735 0.89031398296 0.52378100157 0.44048199058
          0.27332276106 0.6497400403 0.65442174673 0.97223597765 1.0749750137 0.31985300779
          1.0504219532 0.61645400524 0.68123602867 0.97516900301 1.1168869734 0.48063498735
          0.20664016902 0.43921756744 0.21864290535 0.54486000538 0.79252302647 0.39913898706
          0.15840469301 0.46681299806 0.31699898839 0.37055599689 0.92622101307 0.46467500925
          0.91450798512 0.98158800602 0.90455698967 0.33141699433 0.50587099791 0.20888200402
          1.0193790197 0.70311897993 0.71380597353 0.27206808329 1.0743443966 0.69793987274
          0.33728000522 0.77526599169 0.91767001152 0.47295799851 0.8771700263 0.040920600295
          1.0266330242 1.2339810133 0.64628499746 0.8167629838 1.2049219608 0.4248149991
          0.68861502409 1.1868989468 0.87179601192 0.24666200578 0.64474499226 0.36915099621
          0.41935399175 0.77645802498 0.66169297695 0.25699543953 0.75338000059 0.54614931345
          0.51602602005 0.70878499746 0.60921001434 0.18186040223 0.68715697527 0.66261297464
          1.0247700214 0.35457870364 0.43741899729 0.63206326962 0.6042868495 0.90531146526
          0.68130642176 0.68657273054 0.57801443338 0.59287798405 0.63553899527 0.66279101372
          0.29251977801 1.0633981228 0.54456555843 0.96514499187 1.1777299643 0.71065598726
          0.27072998881 1.019135952 0.25606900454 0.18262401223 0.53235316277 0.71987366676
          0.86974298954 0.73106700182 0.15931899846 0.31812599301 0.68876498938 0.90933799744
          0.48231899738 0.90314602852 0.31807801127 0.90050297976 0.77743601799 0.76335400343
          1.0098409653 0.8226659894 0.39975899458 0.82282501459 0.96013897657 0.66818702221
          0.49477601051 0.70607501268 0.71339297295 0.13975326717 0.3600615859 0.27861061692
          0.68369197845 1.2350189686 0.9359099865 0.30176723003 0.90787762403 0.069610394537
          0.26566678286 0.72147399187 0.84165400267
        </DataArray>
      </Points>
      <Verts>
        <DataArray type="Int64" Name="connectivity" format="ascii" RangeMin="1e+299" RangeMax="-1e+299">
        </DataArray>
        <DataArray type="Int64" Name="offsets" format="ascii" RangeMin="1e+299" RangeMax="-1e+299">
        </DataArray>
      </Verts>
      <Lines>
        <DataArray type="Int64" Name="connectivity" format="ascii" RangeMin="8" RangeMax="200">
          64 197 32 101 60 189
          22 148 15 179 45 200
          69 164 53 171 42 112
          67 112 14 133 14 199
          40 160 40 155 78 160
          58 115 36 186 36 115
          41 114 36 158 8 158
          65 146 17 128 76 106
          98 106 47 183 11 184
          34 117 38 124 44 104
          93 135 68 126 70 139
        </DataArray>
        <DataArray type="Int64" Name="offsets" format="ascii" RangeMin="2" RangeMax="66">
          2 4 6 8 10 12
          14 16 18 20 22 24
          26 28 30 32 34 36
          38 40 42 44 46 48
          50 52 54 56 58 60
          62 64 66
        </DataArray>
      </Lines>
      <Strips>
        <DataArray type="Int64" Name="connectivity" format="ascii" RangeMin="8" RangeMax="200">
        </DataArray>
        <DataArray type="Int64" Name="offsets" format="ascii" RangeMin="2" RangeMax="66">
        </DataArray>
      </Strips>
      <Polys>
        <DataArray type="Int64" Name="connectivity" format="ascii" RangeMin="8" RangeMax="200">
        </DataArray>
        <DataArray type="Int64" Name="offsets" format="ascii" RangeMin="2" RangeMax="66">
        </DataArray>
      </Polys>
    </Piece>
  </PolyData>
</VTKFile>
