<?xml version="1.0"?>
<VTKFile type="PolyData" version="0.1" byte_order="LittleEndian" header_type="UInt32" compressor="vtkZLibDataCompressor">
  <PolyData>
    <Piece NumberOfPoints="192" NumberOfVerts="0" NumberOfLines="0" NumberOfStrips="0" NumberOfPolys="376">
      <PointData Scalars="pbColors" Normals="Normals">
        <DataArray type="UInt8" Name="pbColors" NumberOfComponents="3" format="ascii" RangeMin="1" RangeMax="1">
          0 1 0 0 1 0
          0 1 0 0 1 0
          0 1 0 0 1 0
          0 1 0 0 1 0
          0 1 0 0 1 0
          0 1 0 0 1 0
          0 1 0 0 1 0
          0 1 0 0 1 0
          0 1 0 0 1 0
          0 1 0 0 1 0
          0 1 0 0 1 0
          0 1 0 0 1 0
          0 1 0 0 1 0
          0 1 0 0 1 0
          0 1 0 0 1 0
          0 1 0 0 1 0
          0 1 0 0 1 0
          0 1 0 0 1 0
          0 1 0 0 1 0
          0 1 0 0 1 0
          0 1 0 0 1 0
          0 1 0 0 1 0
          0 1 0 0 1 0
          0 1 0 0 1 0
          0 1 0 0 1 0
          0 1 0 0 1 0
          0 1 0 0 1 0
          0 1 0 0 1 0
          0 1 0 0 1 0
          0 1 0 0 1 0
          0 1 0 0 1 0
          0 1 0 0 1 0
          0 1 0 0 1 0
          0 1 0 0 1 0
          0 1 0 0 1 0
          0 1 0 0 1 0
          0 1 0 0 1 0
          0 1 0 0 1 0
          0 1 0 0 1 0
          0 1 0 0 1 0
          0 1 0 0 1 0
          0 1 0 0 1 0
          0 1 0 0 1 0
          0 1 0 0 1 0
          0 1 0 0 1 0
          0 1 0 0 1 0
          0 1 0 0 1 0
          0 1 0 0 1 0
          1 0 0 1 0 0
          1 0 0 1 0 0
          1 0 0 1 0 0
          1 0 0 1 0 0
          1 0 0 1 0 0
          1 0 0 1 0 0
          1 0 0 1 0 0
          1 0 0 1 0 0
          1 0 0 1 0 0
          1 0 0 1 0 0
          1 0 0 1 0 0
          1 0 0 1 0 0
          1 0 0 1 0 0
          1 0 0 1 0 0
          1 0 0 1 0 0
          1 0 0 1 0 0
          1 0 0 1 0 0
          1 0 0 1 0 0
          1 0 0 1 0 0
          1 0 0 1 0 0
          1 0 0 1 0 0
          1 0 0 1 0 0
          1 0 0 1 0 0
          1 0 0 1 0 0
          1 0 0 1 0 0
          1 0 0 1 0 0
          1 0 0 1 0 0
          1 0 0 1 0 0
          1 0 0 1 0 0
          1 0 0 1 0 0
          1 0 0 1 0 0
          1 0 0 1 0 0
          1 0 0 1 0 0
          1 0 0 1 0 0
          1 0 0 1 0 0
          1 0 0 1 0 0
          1 0 0 1 0 0
          1 0 0 1 0 0
          1 0 0 1 0 0
          1 0 0 1 0 0
          1 0 0 1 0 0
          1 0 0 1 0 0
          1 0 0 1 0 0
          1 0 0 1 0 0
          1 0 0 1 0 0
          1 0 0 1 0 0
          1 0 0 1 0 0
          1 0 0 1 0 0
        </DataArray>
        <DataArray type="Float32" Name="Normals" NumberOfComponents="3" format="ascii" RangeMin="1.0000000154" RangeMax="1.0000000372">
          0.12327051163 0.55856949091 0.82024663687 -0.12327051163 0.55856949091 0.82024663687
          0.55856949091 0.12327051163 0.82024663687 0.10581211746 0.10581211746 0.98874044418
          -0.10581211746 0.10581211746 0.98874044418 -0.55856949091 0.12327051163 0.82024663687
          0.55856949091 -0.12327051163 0.82024663687 0.10581211746 -0.10581211746 0.98874044418
          -0.10581211746 -0.10581211746 0.98874044418 -0.55856949091 -0.12327051163 0.82024663687
          0.12327051163 -0.55856949091 0.82024663687 -0.12327051163 -0.55856949091 0.82024663687
          0.12327051163 0.82024663687 0.55856949091 -0.12327051163 0.82024663687 0.55856949091
          0.50870341063 0.60877782106 0.60877782106 0.60877782106 0.50870341063 0.60877782106
          0.60877782106 0.60877782106 0.50870341063 -0.50870341063 0.60877782106 0.60877782106
          -0.60877782106 0.50870341063 0.60877782106 -0.60877782106 0.60877782106 0.50870341063
          0.82024663687 0.12327051163 0.55856949091 -0.82024663687 0.12327051163 0.55856949091
          0.82024663687 -0.12327051163 0.55856949091 0.60877782106 -0.50870341063 0.60877782106
          -0.82024663687 -0.12327051163 0.55856949091 -0.60877782106 -0.50870341063 0.60877782106
          0.50870341063 -0.60877782106 0.60877782106 0.60877782106 -0.60877782106 0.50870341063
          0.12327051163 -0.82024663687 0.55856949091 -0.50870341063 -0.60877782106 0.60877782106
          -0.12327051163 -0.82024663687 0.55856949091 -0.60877782106 -0.60877782106 0.50870341063
          0.55856949091 0.82024663687 0.12327051163 0.10581211746 0.98874044418 0.10581211746
          -0.10581211746 0.98874044418 0.10581211746 -0.55856949091 0.82024663687 0.12327051163
          0.82024663687 0.55856949091 0.12327051163 -0.82024663687 0.55856949091 0.12327051163
          0.98874044418 0.10581211746 0.10581211746 -0.98874044418 0.10581211746 0.10581211746
          0.98874044418 -0.10581211746 0.10581211746 -0.98874044418 -0.10581211746 0.10581211746
          0.82024663687 -0.55856949091 0.12327051163 0.55856949091 -0.82024663687 0.12327051163
          0.10581211746 -0.98874044418 0.10581211746 -0.10581211746 -0.98874044418 0.10581211746
          -0.82024663687 -0.55856949091 0.12327051163 -0.55856949091 -0.82024663687 0.12327051163
          0.55856949091 0.82024663687 -0.12327051163 0.10581211746 0.98874044418 -0.10581211746
          -0.10581211746 0.98874044418 -0.10581211746 -0.55856949091 0.82024663687 -0.12327051163
          0.82024663687 0.55856949091 -0.12327051163 0.60877782106 0.60877782106 -0.50870341063
          -0.82024663687 0.55856949091 -0.12327051163 -0.60877782106 0.60877782106 -0.50870341063
          0.98874044418 0.10581211746 -0.10581211746 -0.98874044418 0.10581211746 -0.10581211746
          0.98874044418 -0.10581211746 -0.10581211746 -0.98874044418 -0.10581211746 -0.10581211746
          0.82024663687 -0.55856949091 -0.12327051163 0.55856949091 -0.82024663687 -0.12327051163
          0.60877782106 -0.60877782106 -0.50870341063 0.10581211746 -0.98874044418 -0.10581211746
          -0.10581211746 -0.98874044418 -0.10581211746 -0.82024663687 -0.55856949091 -0.12327051163
          -0.55856949091 -0.82024663687 -0.12327051163 -0.60877782106 -0.60877782106 -0.50870341063
          0.12327051163 0.82024663687 -0.55856949091 -0.12327051163 0.82024663687 -0.55856949091
          0.50870341063 0.60877782106 -0.60877782106 0.60877782106 0.50870341063 -0.60877782106
          0.12327051163 0.55856949091 -0.82024663687 -0.50870341063 0.60877782106 -0.60877782106
          -0.12327051163 0.55856949091 -0.82024663687 -0.60877782106 0.50870341063 -0.60877782106
          0.82024663687 0.12327051163 -0.55856949091 0.55856949091 0.12327051163 -0.82024663687
          0.10581211746 0.10581211746 -0.98874044418 -0.10581211746 0.10581211746 -0.98874044418
          -0.82024663687 0.12327051163 -0.55856949091 -0.55856949091 0.12327051163 -0.82024663687
          0.82024663687 -0.12327051163 -0.55856949091 0.60877782106 -0.50870341063 -0.60877782106
          0.55856949091 -0.12327051163 -0.82024663687 0.10581211746 -0.10581211746 -0.98874044418
          -0.10581211746 -0.10581211746 -0.98874044418 -0.82024663687 -0.12327051163 -0.55856949091
          -0.60877782106 -0.50870341063 -0.60877782106 -0.55856949091 -0.12327051163 -0.82024663687
          0.50870341063 -0.60877782106 -0.60877782106 0.12327051163 -0.82024663687 -0.55856949091
          0.12327051163 -0.55856949091 -0.82024663687 -0.50870341063 -0.60877782106 -0.60877782106
          -0.12327051163 -0.82024663687 -0.55856949091 -0.12327051163 -0.55856949091 -0.82024663687
          0.12327051163 0.55856949091 0.82024663687 -0.12327051163 0.55856949091 0.82024663687
          0.55856949091 0.12327051163 0.82024663687 0.10581211746 0.10581211746 0.98874044418
          -0.10581211746 0.10581211746 0.98874044418 -0.55856949091 0.12327051163 0.82024663687
          0.55856949091 -0.12327051163 0.82024663687 0.10581211746 -0.10581211746 0.98874044418
          -0.10581211746 -0.10581211746 0.98874044418 -0.55856949091 -0.12327051163 0.82024663687
          0.12327051163 -0.55856949091 0.82024663687 -0.12327051163 -0.55856949091 0.82024663687
          0.12327051163 0.82024663687 0.55856949091 -0.12327051163 0.82024663687 0.55856949091
          0.50870341063 0.60877782106 0.60877782106 0.60877782106 0.50870341063 0.60877782106
          0.60877782106 0.60877782106 0.50870341063 -0.50870341063 0.60877782106 0.60877782106
          -0.60877782106 0.50870341063 0.60877782106 -0.60877782106 0.60877782106 0.50870341063
          0.82024663687 0.12327051163 0.55856949091 -0.82024663687 0.12327051163 0.55856949091
          0.82024663687 -0.12327051163 0.55856949091 0.60877782106 -0.50870341063 0.60877782106
          -0.82024663687 -0.12327051163 0.55856949091 -0.60877782106 -0.50870341063 0.60877782106
          0.50870341063 -0.60877782106 0.60877782106 0.60877782106 -0.60877782106 0.50870341063
          0.12327051163 -0.82024663687 0.55856949091 -0.50870341063 -0.60877782106 0.60877782106
          -0.12327051163 -0.82024663687 0.55856949091 -0.60877782106 -0.60877782106 0.50870341063
          0.55856949091 0.82024663687 0.12327051163 0.10581211746 0.98874044418 0.10581211746
          -0.10581211746 0.98874044418 0.10581211746 -0.55856949091 0.82024663687 0.12327051163
          0.82024663687 0.55856949091 0.12327051163 -0.82024663687 0.55856949091 0.12327051163
          0.98874044418 0.10581211746 0.10581211746 -0.98874044418 0.10581211746 0.10581211746
          0.98874044418 -0.10581211746 0.10581211746 -0.98874044418 -0.10581211746 0.10581211746
          0.82024663687 -0.55856949091 0.12327051163 0.55856949091 -0.82024663687 0.12327051163
          0.10581211746 -0.98874044418 0.10581211746 -0.10581211746 -0.98874044418 0.10581211746
          -0.82024663687 -0.55856949091 0.12327051163 -0.55856949091 -0.82024663687 0.12327051163
          0.55856949091 0.82024663687 -0.12327051163 0.10581211746 0.98874044418 -0.10581211746
          -0.10581211746 0.98874044418 -0.10581211746 -0.55856949091 0.82024663687 -0.12327051163
          0.82024663687 0.55856949091 -0.12327051163 0.60877782106 0.60877782106 -0.50870341063
          -0.82024663687 0.55856949091 -0.12327051163 -0.60877782106 0.60877782106 -0.50870341063
          0.98874044418 0.10581211746 -0.10581211746 -0.98874044418 0.10581211746 -0.10581211746
          0.98874044418 -0.10581211746 -0.10581211746 -0.98874044418 -0.10581211746 -0.10581211746
          0.82024663687 -0.55856949091 -0.12327051163 0.55856949091 -0.82024663687 -0.12327051163
          0.60877782106 -0.60877782106 -0.50870341063 0.10581211746 -0.98874044418 -0.10581211746
          -0.10581211746 -0.98874044418 -0.10581211746 -0.82024663687 -0.55856949091 -0.12327051163
          -0.55856949091 -0.82024663687 -0.12327051163 -0.60877782106 -0.60877782106 -0.50870341063
          0.12327051163 0.82024663687 -0.55856949091 -0.12327051163 0.82024663687 -0.55856949091
          0.50870341063 0.60877782106 -0.60877782106 0.60877782106 0.50870341063 -0.60877782106
          0.12327051163 0.55856949091 -0.82024663687 -0.50870341063 0.60877782106 -0.60877782106
          -0.12327051163 0.55856949091 -0.82024663687 -0.60877782106 0.50870341063 -0.60877782106
          0.82024663687 0.12327051163 -0.55856949091 0.55856949091 0.12327051163 -0.82024663687
          0.10581211746 0.10581211746 -0.98874044418 -0.10581211746 0.10581211746 -0.98874044418
          -0.82024663687 0.12327051163 -0.55856949091 -0.55856949091 0.12327051163 -0.82024663687
          0.82024663687 -0.12327051163 -0.55856949091 0.60877782106 -0.50870341063 -0.60877782106
          0.55856949091 -0.12327051163 -0.82024663687 0.10581211746 -0.10581211746 -0.98874044418
          -0.10581211746 -0.10581211746 -0.98874044418 -0.82024663687 -0.12327051163 -0.55856949091
          -0.60877782106 -0.50870341063 -0.60877782106 -0.55856949091 -0.12327051163 -0.82024663687
          0.50870341063 -0.60877782106 -0.60877782106 0.12327051163 -0.82024663687 -0.55856949091
          0.12327051163 -0.55856949091 -0.82024663687 -0.50870341063 -0.60877782106 -0.60877782106
          -0.12327051163 -0.82024663687 -0.55856949091 -0.12327051163 -0.55856949091 -0.82024663687
        </DataArray>
      </PointData>
      <CellData>
      </CellData>
      <Points>
        <DataArray type="Float32" Name="Points" NumberOfComponents="3" format="ascii" RangeMin="0.027096259182" RangeMax="0.11236276285">
          -0.01111111138 -0.033333335072 -0.038298919797 0.01111111138 -0.033333335072 -0.038298919797
          -0.033333335072 -0.01111111138 -0.038298919797 -0.01111111138 -0.01111111138 -0.044591937214
          0.01111111138 -0.01111111138 -0.044591937214 0.033333335072 -0.01111111138 -0.038298919797
          -0.033333335072 0.01111111138 -0.038298919797 -0.01111111138 0.01111111138 -0.044591937214
          0.01111111138 0.01111111138 -0.044591937214 0.033333335072 0.01111111138 -0.038298919797
          -0.01111111138 0.033333335072 -0.038298919797 0.01111111138 0.033333335072 -0.038298919797
          -0.01111111138 -0.038298919797 -0.033333335072 0.01111111138 -0.038298919797 -0.033333335072
          -0.028645833954 -0.033333335072 -0.033333335072 -0.033333335072 -0.028645833954 -0.033333335072
          -0.033333335072 -0.033333335072 -0.028645833954 0.028645833954 -0.033333335072 -0.033333335072
          0.033333335072 -0.028645833954 -0.033333335072 0.033333335072 -0.033333335072 -0.028645833954
          -0.038298919797 -0.01111111138 -0.033333335072 0.038298919797 -0.01111111138 -0.033333335072
          -0.038298919797 0.01111111138 -0.033333335072 -0.033333335072 0.028645833954 -0.033333335072
          0.038298919797 0.01111111138 -0.033333335072 0.033333335072 0.028645833954 -0.033333335072
          -0.028645833954 0.033333335072 -0.033333335072 -0.033333335072 0.033333335072 -0.028645833954
          -0.01111111138 0.038298919797 -0.033333335072 0.028645833954 0.033333335072 -0.033333335072
          0.01111111138 0.038298919797 -0.033333335072 0.033333335072 0.033333335072 -0.028645833954
          -0.033333335072 -0.038298919797 -0.01111111138 -0.01111111138 -0.044591937214 -0.01111111138
          0.01111111138 -0.044591937214 -0.01111111138 0.033333335072 -0.038298919797 -0.01111111138
          -0.038298919797 -0.033333335072 -0.01111111138 0.038298919797 -0.033333335072 -0.01111111138
          -0.044591937214 -0.01111111138 -0.01111111138 0.044591937214 -0.01111111138 -0.01111111138
          -0.044591937214 0.01111111138 -0.01111111138 0.044591937214 0.01111111138 -0.01111111138
          -0.038298919797 0.033333335072 -0.01111111138 -0.033333335072 0.038298919797 -0.01111111138
          -0.01111111138 0.044591937214 -0.01111111138 0.01111111138 0.044591937214 -0.01111111138
          0.038298919797 0.033333335072 -0.01111111138 0.033333335072 0.038298919797 -0.01111111138
          -0.033333335072 -0.038298919797 0.01111111138 -0.01111111138 -0.044591937214 0.01111111138
          0.01111111138 -0.044591937214 0.01111111138 0.033333335072 -0.038298919797 0.01111111138
          -0.038298919797 -0.033333335072 0.01111111138 -0.033333335072 -0.033333335072 0.028645833954
          0.038298919797 -0.033333335072 0.01111111138 0.033333335072 -0.033333335072 0.028645833954
          -0.044591937214 -0.01111111138 0.01111111138 0.044591937214 -0.01111111138 0.01111111138
          -0.044591937214 0.01111111138 0.01111111138 0.044591937214 0.01111111138 0.01111111138
          -0.038298919797 0.033333335072 0.01111111138 -0.033333335072 0.038298919797 0.01111111138
          -0.033333335072 0.033333335072 0.028645833954 -0.01111111138 0.044591937214 0.01111111138
          0.01111111138 0.044591937214 0.01111111138 0.038298919797 0.033333335072 0.01111111138
          0.033333335072 0.038298919797 0.01111111138 0.033333335072 0.033333335072 0.028645833954
          -0.01111111138 -0.038298919797 0.033333335072 0.01111111138 -0.038298919797 0.033333335072
          -0.028645833954 -0.033333335072 0.033333335072 -0.033333335072 -0.028645833954 0.033333335072
          -0.01111111138 -0.033333335072 0.038298919797 0.028645833954 -0.033333335072 0.033333335072
          0.01111111138 -0.033333335072 0.038298919797 0.033333335072 -0.028645833954 0.033333335072
          -0.038298919797 -0.01111111138 0.033333335072 -0.033333335072 -0.01111111138 0.038298919797
          -0.01111111138 -0.01111111138 0.044591937214 0.01111111138 -0.01111111138 0.044591937214
          0.038298919797 -0.01111111138 0.033333335072 0.033333335072 -0.01111111138 0.038298919797
          -0.038298919797 0.01111111138 0.033333335072 -0.033333335072 0.028645833954 0.033333335072
          -0.033333335072 0.01111111138 0.038298919797 -0.01111111138 0.01111111138 0.044591937214
          0.01111111138 0.01111111138 0.044591937214 0.038298919797 0.01111111138 0.033333335072
          0.033333335072 0.028645833954 0.033333335072 0.033333335072 0.01111111138 0.038298919797
          -0.028645833954 0.033333335072 0.033333335072 -0.01111111138 0.038298919797 0.033333335072
          -0.01111111138 0.033333335072 0.038298919797 0.028645833954 0.033333335072 0.033333335072
          0.01111111138 0.038298919797 0.033333335072 0.01111111138 0.033333335072 0.038298919797
          0.055555555969 -0.033333335072 -0.038298919797 0.077777780592 -0.033333335072 -0.038298919797
          0.033333331347 -0.01111111138 -0.038298919797 0.055555555969 -0.01111111138 -0.044591937214
          0.077777780592 -0.01111111138 -0.044591937214 0.10000000149 -0.01111111138 -0.038298919797
          0.033333331347 0.01111111138 -0.038298919797 0.055555555969 0.01111111138 -0.044591937214
          0.077777780592 0.01111111138 -0.044591937214 0.10000000149 0.01111111138 -0.038298919797
          0.055555555969 0.033333335072 -0.038298919797 0.077777780592 0.033333335072 -0.038298919797
          0.055555555969 -0.038298919797 -0.033333335072 0.077777780592 -0.038298919797 -0.033333335072
          0.038020834327 -0.033333335072 -0.033333335072 0.033333331347 -0.028645833954 -0.033333335072
          0.033333331347 -0.033333335072 -0.028645833954 0.09531249851 -0.033333335072 -0.033333335072
          0.10000000149 -0.028645833954 -0.033333335072 0.10000000149 -0.033333335072 -0.028645833954
          0.028367746621 -0.01111111138 -0.033333335072 0.10496558994 -0.01111111138 -0.033333335072
          0.028367746621 0.01111111138 -0.033333335072 0.033333331347 0.028645833954 -0.033333335072
          0.10496558994 0.01111111138 -0.033333335072 0.10000000149 0.028645833954 -0.033333335072
          0.038020834327 0.033333335072 -0.033333335072 0.033333331347 0.033333335072 -0.028645833954
          0.055555555969 0.038298919797 -0.033333335072 0.09531249851 0.033333335072 -0.033333335072
          0.077777780592 0.038298919797 -0.033333335072 0.10000000149 0.033333335072 -0.028645833954
          0.033333331347 -0.038298919797 -0.01111111138 0.055555555969 -0.044591937214 -0.01111111138
          0.077777780592 -0.044591937214 -0.01111111138 0.10000000149 -0.038298919797 -0.01111111138
          0.028367746621 -0.033333335072 -0.01111111138 0.10496558994 -0.033333335072 -0.01111111138
          0.022074729204 -0.01111111138 -0.01111111138 0.11125860363 -0.01111111138 -0.01111111138
          0.022074729204 0.01111111138 -0.01111111138 0.11125860363 0.01111111138 -0.01111111138
          0.028367746621 0.033333335072 -0.01111111138 0.033333331347 0.038298919797 -0.01111111138
          0.055555555969 0.044591937214 -0.01111111138 0.077777780592 0.044591937214 -0.01111111138
          0.10496558994 0.033333335072 -0.01111111138 0.10000000149 0.038298919797 -0.01111111138
          0.033333331347 -0.038298919797 0.01111111138 0.055555555969 -0.044591937214 0.01111111138
          0.077777780592 -0.044591937214 0.01111111138 0.10000000149 -0.038298919797 0.01111111138
          0.028367746621 -0.033333335072 0.01111111138 0.033333331347 -0.033333335072 0.028645833954
          0.10496558994 -0.033333335072 0.01111111138 0.10000000149 -0.033333335072 0.028645833954
          0.022074729204 -0.01111111138 0.01111111138 0.11125860363 -0.01111111138 0.01111111138
          0.022074729204 0.01111111138 0.01111111138 0.11125860363 0.01111111138 0.01111111138
          0.028367746621 0.033333335072 0.01111111138 0.033333331347 0.038298919797 0.01111111138
          0.033333331347 0.033333335072 0.028645833954 0.055555555969 0.044591937214 0.01111111138
          0.077777780592 0.044591937214 0.01111111138 0.10496558994 0.033333335072 0.01111111138
          0.10000000149 0.038298919797 0.01111111138 0.10000000149 0.033333335072 0.028645833954
          0.055555555969 -0.038298919797 0.033333335072 0.077777780592 -0.038298919797 0.033333335072
          0.038020834327 -0.033333335072 0.033333335072 0.033333331347 -0.028645833954 0.033333335072
          0.055555555969 -0.033333335072 0.038298919797 0.09531249851 -0.033333335072 0.033333335072
          0.077777780592 -0.033333335072 0.038298919797 0.10000000149 -0.028645833954 0.033333335072
          0.028367746621 -0.01111111138 0.033333335072 0.033333331347 -0.01111111138 0.038298919797
          0.055555555969 -0.01111111138 0.044591937214 0.077777780592 -0.01111111138 0.044591937214
          0.10496558994 -0.01111111138 0.033333335072 0.10000000149 -0.01111111138 0.038298919797
          0.028367746621 0.01111111138 0.033333335072 0.033333331347 0.028645833954 0.033333335072
          0.033333331347 0.01111111138 0.038298919797 0.055555555969 0.01111111138 0.044591937214
          0.077777780592 0.01111111138 0.044591937214 0.10496558994 0.01111111138 0.033333335072
          0.10000000149 0.028645833954 0.033333335072 0.10000000149 0.01111111138 0.038298919797
          0.038020834327 0.033333335072 0.033333335072 0.055555555969 0.038298919797 0.033333335072
          0.055555555969 0.033333335072 0.038298919797 0.09531249851 0.033333335072 0.033333335072
          0.077777780592 0.038298919797 0.033333335072 0.077777780592 0.033333335072 0.038298919797
        </DataArray>
      </Points>
      <Verts>
        <DataArray type="Int64" Name="connectivity" format="ascii" RangeMin="1e+299" RangeMax="-1e+299">
        </DataArray>
        <DataArray type="Int64" Name="offsets" format="ascii" RangeMin="1e+299" RangeMax="-1e+299">
        </DataArray>
      </Verts>
      <Lines>
        <DataArray type="Int64" Name="connectivity" format="ascii" RangeMin="1e+299" RangeMax="-1e+299">
        </DataArray>
        <DataArray type="Int64" Name="offsets" format="ascii" RangeMin="1e+299" RangeMax="-1e+299">
        </DataArray>
      </Lines>
      <Strips>
        <DataArray type="Int64" Name="connectivity" format="ascii" RangeMin="1e+299" RangeMax="-1e+299">
        </DataArray>
        <DataArray type="Int64" Name="offsets" format="ascii" RangeMin="1e+299" RangeMax="-1e+299">
        </DataArray>
      </Strips>
      <Polys>
        <DataArray type="Int64" Name="connectivity" format="ascii" RangeMin="0" RangeMax="191">
          0 14 12 0 13 1
          12 13 0 13 17 1
          2 20 15 14 2 15
          14 0 2 0 3 2
          1 4 0 4 3 0
          18 1 17 18 5 1
          5 4 1 18 21 5
          6 20 2 22 20 6
          3 7 2 7 6 2
          4 8 3 8 7 3
          5 9 4 9 8 4
          24 5 21 9 5 24
          6 23 22 23 10 26
          23 6 10 6 7 10
          8 11 7 11 10 7
          29 9 25 29 11 9
          11 8 9 24 25 9
          10 28 26 11 28 10
          30 28 11 29 30 11
          16 36 32 16 12 14
          16 32 12 32 33 12
          13 12 34 12 33 34
          17 35 19 17 13 35
          13 34 35 35 37 19
          15 36 16 15 20 36
          20 38 36 14 15 16
          17 19 18 19 21 18
          19 37 21 37 39 21
          20 22 38 38 22 40
          21 39 24 39 41 24
          27 22 23 27 42 22
          42 40 22 23 26 27
          25 31 29 25 46 31
          25 24 46 24 41 46
          27 43 42 26 43 27
          26 28 43 28 44 43
          30 45 28 28 45 44
          31 30 29 31 47 30
          47 45 30 46 47 31
          32 52 48 36 52 32
          33 32 49 32 48 49
          34 33 50 33 49 50
          35 34 51 34 50 51
          51 37 35 54 37 51
          36 38 52 52 38 56
          37 54 39 54 57 39
          38 40 56 56 40 58
          39 57 41 57 59 41
          40 42 58 58 42 60
          41 59 46 59 65 46
          42 61 60 43 61 42
          44 63 43 43 63 61
          45 64 44 44 64 63
          47 66 45 45 66 64
          65 47 46 66 47 65
          48 52 53 70 48 53
          70 68 48 68 49 48
          50 49 69 49 68 69
          55 69 73 55 51 69
          51 50 69 51 55 54
          53 76 71 53 52 76
          52 56 76 70 53 71
          55 73 75 75 54 55
          75 80 54 80 57 54
          56 58 76 76 58 82
          57 80 59 80 87 59
          83 60 62 83 82 60
          82 58 60 83 62 90
          67 88 93 67 87 88
          67 65 87 65 59 87
          60 61 62 62 91 90
          62 61 91 61 63 91
          64 94 63 63 94 91
          93 66 67 93 94 66
          94 64 66 65 67 66
          68 70 72 68 74 69
          72 74 68 69 74 73
          71 76 77 71 72 70
          71 77 72 77 78 72
          74 72 79 79 72 78
          73 81 75 73 74 81
          74 79 81 75 81 80
          77 82 84 76 82 77
          78 77 85 85 77 84
          79 78 86 86 78 85
          81 79 89 89 79 86
          80 89 87 81 89 80
          82 83 84 90 84 83
          90 92 84 92 85 84
          86 85 95 95 85 92
          88 95 93 88 89 95
          89 86 95 87 89 88
          90 91 92 94 92 91
          95 92 94 93 95 94
          96 110 108 96 109 97
          108 109 96 109 113 97
          98 116 111 110 98 111
          110 96 98 96 99 98
          97 100 96 100 99 96
          114 97 113 114 101 97
          101 100 97 114 117 101
          102 116 98 118 116 102
          99 103 98 103 102 98
          100 104 99 104 103 99
          101 105 100 105 104 100
          120 101 117 105 101 120
          102 119 118 119 106 122
          119 102 106 102 103 106
          104 107 103 107 106 103
          125 105 121 125 107 105
          107 104 105 120 121 105
          106 124 122 107 124 106
          126 124 107 125 126 107
          112 132 128 112 108 110
          112 128 108 128 129 108
          109 108 130 108 129 130
          113 131 115 113 109 131
          109 130 131 131 133 115
          111 132 112 111 116 132
          116 134 132 110 111 112
          113 115 114 115 117 114
          115 133 117 133 135 117
          116 118 134 134 118 136
          117 135 120 135 137 120
          123 118 119 123 138 118
          138 136 118 119 122 123
          121 127 125 121 142 127
          121 120 142 120 137 142
          123 139 138 122 139 123
          122 124 139 124 140 139
          126 141 124 124 141 140
          127 126 125 127 143 126
          143 141 126 142 143 127
          128 148 144 132 148 128
          129 128 145 128 144 145
          130 129 146 129 145 146
          131 130 147 130 146 147
          147 133 131 150 133 147
          132 134 148 148 134 152
          133 150 135 150 153 135
          134 136 152 152 136 154
          135 153 137 153 155 137
          136 138 154 154 138 156
          137 155 142 155 161 142
          138 157 156 139 157 138
          140 159 139 139 159 157
          141 160 140 140 160 159
          143 162 141 141 162 160
          161 143 142 162 143 161
          144 148 149 166 144 149
          166 164 144 164 145 144
          146 145 165 145 164 165
          151 165 169 151 147 165
          147 146 165 147 151 150
          149 172 167 149 148 172
          148 152 172 166 149 167
          151 169 171 171 150 151
          171 176 150 176 153 150
          152 154 172 172 154 178
          153 176 155 176 183 155
          179 156 158 179 178 156
          178 154 156 179 158 186
          163 184 189 163 183 184
          163 161 183 161 155 183
          156 157 158 158 187 186
          158 157 187 157 159 187
          160 190 159 159 190 187
          189 162 163 189 190 162
          190 160 162 161 163 162
          164 166 168 164 170 165
          168 170 164 165 170 169
          167 172 173 167 168 166
          167 173 168 173 174 168
          170 168 175 175 168 174
          169 177 171 169 170 177
          170 175 177 171 177 176
          173 178 180 172 178 173
          174 173 181 181 173 180
          175 174 182 182 174 181
          177 175 185 185 175 182
          176 185 183 177 185 176
          178 179 180 186 180 179
          186 188 180 188 181 180
          182 181 191 191 181 188
          184 191 189 184 185 191
          185 182 191 183 185 184
          186 187 188 190 188 187
          191 188 190 189 191 190
        </DataArray>
        <DataArray type="Int64" Name="offsets" format="ascii" RangeMin="3" RangeMax="1128">
          3 6 9 12 15 18
          21 24 27 30 33 36
          39 42 45 48 51 54
          57 60 63 66 69 72
          75 78 81 84 87 90
          93 96 99 102 105 108
          111 114 117 120 123 126
          129 132 135 138 141 144
          147 150 153 156 159 162
          165 168 171 174 177 180
          183 186 189 192 195 198
          201 204 207 210 213 216
          219 222 225 228 231 234
          237 240 243 246 249 252
          255 258 261 264 267 270
          273 276 279 282 285 288
          291 294 297 300 303 306
          309 312 315 318 321 324
          327 330 333 336 339 342
          345 348 351 354 357 360
          363 366 369 372 375 378
          381 384 387 390 393 396
          399 402 405 408 411 414
          417 420 423 426 429 432
          435 438 441 444 447 450
          453 456 459 462 465 468
          471 474 477 480 483 486
          489 492 495 498 501 504
          507 510 513 516 519 522
          525 528 531 534 537 540
          543 546 549 552 555 558
          561 564 567 570 573 576
          579 582 585 588 591 594
          597 600 603 606 609 612
          615 618 621 624 627 630
          633 636 639 642 645 648
          651 654 657 660 663 666
          669 672 675 678 681 684