<?xml version="1.0"?>
<VTKFile type="UnstructuredGrid" version="0.1" byte_order="LittleEndian" header_type="UInt32" compressor="vtkZLibDataCompressor">
  <UnstructuredGrid>
    <Piece NumberOfPoints="1" NumberOfCells="1">
      <PointData>
        <DataArray type="Float32" Name="normalForce" NumberOfComponents="3" format="ascii" RangeMin="103680.50781" RangeMax="103680.50781">
          103680.50781 -1.1350517561e-42 1.8160828098e-41
        </DataArray>
        <DataArray type="Float32" Name="shearForce" NumberOfComponents="3" format="ascii" RangeMin="0" RangeMax="0">
          0 -0 0
        </DataArray>
      </PointData>
      <CellData>
      </CellData>
      <Points>
        <DataArray type="Float32" Name="Points" NumberOfComponents="3" format="ascii" RangeMin="0.033333335072" RangeMax="0.033333335072">
          0.033333335072 4.1295924697e-33 -5.317904117e-32
        </DataArray>
      </Points>
      <Cells>
        <DataArray type="Int64" Name="connectivity" format="ascii" RangeMin="0" RangeMax="0">
          0
        </DataArray>
        <DataArray type="Int64" Name="offsets" format="ascii" RangeMin="1" RangeMax="1">
          1
        </DataArray>
        <DataArray type="UInt8" Name="types" format="ascii" RangeMin="1" RangeMax="1">
          1
        </DataArray>
      </Cells>
    </Piece>
  </UnstructuredGrid>
</VTKFile>
