<?xml version="1.0"?>
<VTKFile type="UnstructuredGrid" version="0.1" byte_order="LittleEndian" header_type="UInt32" compressor="vtkZLibDataCompressor">
  <UnstructuredGrid>
    <Piece NumberOfPoints="200" NumberOfCells="200">
      <PointData>
        <DataArray type="Float64" Name="radii" format="ascii" RangeMin="0.0321645" RangeMax="0.063226">
          0.063226 0.0629123 0.0625985 0.0622848 0.061971 0.0616573
          0.0613435 0.0610297 0.060716 0.0604022 0.0600885 0.0597747
          0.059461 0.0591472 0.0588335 0.0585197 0.058206 0.0578922
          0.0575785 0.0572647 0.056951 0.0566372 0.0563234 0.0560097
          0.0556959 0.0553822 0.0550684 0.0547547 0.0544409 0.0541272
          0.0538134 0.0534997 0.0531859 0.0528722 0.0525584 0.0522447
          0.0519309 0.0516172 0.0513034 0.0509896 0.0506759 0.0503621
          0.0500484 0.0497346 0.0494209 0.0491071 0.0487934 0.0484796
          0.0481659 0.0478521 0.0475384 0.0472246 0.0469109 0.0465971
          0.0462833 0.0459696 0.0456558 0.0453421 0.0450283 0.0447146
          0.0444008 0.0440871 0.0437733 0.0434596 0.0431458 0.0428321
          0.0425183 0.0422046 0.0418908 0.041577 0.0412633 0.0409495
          0.0406358 0.040322 0.0400083 0.0396945 0.0393808 0.039067
          0.0387533 0.0384395 0.0381258 0.037812 0.0374983 0.0371845
          0.0368708 0.036557 0.0362432 0.0359295 0.0356157 0.035302
          0.0349882 0.0346745 0.0343607 0.034047 0.0337332 0.0334195
          0.0331057 0.032792 0.0324782 0.0321645 0.063226 0.0629123
          0.0625985 0.0622848 0.061971 0.0616573 0.0613435 0.0610297
          0.060716 0.0604022 0.0600885 0.0597747 0.059461 0.0591472
          0.0588335 0.0585197 0.058206 0.0578922 0.0575785 0.0572647
          0.056951 0.0566372 0.0563234 0.0560097 0.0556959 0.0553822
          0.0550684 0.0547547 0.0544409 0.0541272 0.0538134 0.0534997
          0.0531859 0.0528722 0.0525584 0.0522447 0.0519309 0.0516172
          0.0513034 0.0509896 0.0506759 0.0503621 0.0500484 0.0497346
          0.0494209 0.0491071 0.0487934 0.0484796 0.0481659 0.0478521
          0.0475384 0.0472246 0.0469109 0.0465971 0.0462833 0.0459696
          0.0456558 0.0453421 0.0450283 0.0447146 0.0444008 0.0440871
          0.0437733 0.0434596 0.0431458 0.0428321 0.0425183 0.0422046
          0.0418908 0.041577 0.0412633 0.0409495 0.0406358 0.040322
          0.0400083 0.0396945 0.0393808 0.039067 0.0387533 0.0384395
          0.0381258 0.037812 0.0374983 0.0371845 0.0368708 0.036557
          0.0362432 0.0359295 0.0356157 0.035302 0.0349882 0.0346745
          0.0343607 0.034047 0.0337332 0.0334195 0.0331057 0.032792
          0.0324782 0.0321645
        </DataArray>
        <DataArray type="Float64" Name="id" format="ascii" RangeMin="1" RangeMax="200">
          1 2 3 4 5 6
          7 8 9 10 11 12
          13 14 15 16 17 18
          19 20 21 22 23 24
          25 26 27 28 29 30
          31 32 33 34 35 36
          37 38 39 40 41 42
          43 44 45 46 47 48
          49 50 51 52 53 54
          55 56 57 58 59 60
          61 62 63 64 65 66
          67 68 69 70 71 72
          73 74 75 76 77 78
          79 80 81 82 83 84
          85 86 87 88 89 90
          91 92 93 94 95 96
          97 98 99 100 101 102
          103 104 105 106 107 108
          109 110 111 112 113 114
          115 116 117 118 119 120
          121 122 123 124 125 126
          127 128 129 130 131 132
          133 134 135 136 137 138
          139 140 141 142 143 144
          145 146 147 148 149 150
          151 152 153 154 155 156
          157 158 159 160 161 162
          163 164 165 166 167 168
          169 170 171 172 173 174
          175 176 177 178 179 180
          181 182 183 184 185 186
          187 188 189 190 191 192
          193 194 195 196 197 198
          199 200
        </DataArray>
        <DataArray type="Float64" Name="mask" format="ascii" RangeMin="1" RangeMax="1">
          1 1 1 1 1 1
          1 1 1 1 1 1
          1 1 1 1 1 1
          1 1 1 1 1 1
          1 1 1 1 1 1
          1 1 1 1 1 1
          1 1 1 1 1 1
          1 1 1 1 1 1
          1 1 1 1 1 1
          1 1 1 1 1 1
          1 1 1 1 1 1
          1 1 1 1 1 1
          1 1 1 1 1 1
          1 1 1 1 1 1
          1 1 1 1 1 1
          1 1 1 1 1 1
          1 1 1 1 1 1
          1 1 1 1 1 1
          1 1 1 1 1 1
          1 1 1 1 1 1
          1 1 1 1 1 1
          1 1 1 1 1 1
          1 1 1 1 1 1
          1 1 1 1 1 1
          1 1 1 1 1 1
          1 1 1 1 1 1
          1 1 1 1 1 1
          1 1 1 1 1 1
          1 1 1 1 1 1
          1 1 1 1 1 1
          1 1 1 1 1 1
          1 1 1 1 1 1
          1 1 1 1 1 1
          1 1
        </DataArray>
        <DataArray type="Float64" Name="mass" format="ascii" RangeMin="0.13938595764588868" RangeMax="1.0587068676475884">
          1.0587068676475884 1.043026391941887 1.0274965901662816 1.0121265841524407 0.9969057983292607 0.9818431575775155
          0.9669282822873789 0.9521652218593831 0.9375578321914898 0.9230960239200209 0.9087882381924473 0.8946245766581227
          0.8806132904411043 0.8667446702245426 0.853026779088315 0.8394500947701345 0.8260224942849332 0.8127346404457515
          0.7995942261818121 0.7865920974022479 0.7737357649298057 0.7610162557904765 0.7484369142110365 0.7360009057612916
          0.7236995254455701 0.7115398374655463 0.699513312994162 0.6876268410540949 0.6758720670076651 0.6642557066777902
          0.6527695776369334 0.6414202244874863 0.6301996350328211 0.6191141846340371 0.6081560293461808 0.5973313772682957
          0.5866325507278671 0.5760655925411161 0.5656229893287328 0.555307353416852 0.5451211352996321 0.5350570643392801
          0.5251207787914182 0.5153051673632132 0.5056157099549451 0.4960454526395054 0.48659971894106624 0.4772717103190097
          0.4680665959006352 0.45897773055258023 0.4500101309845059 0.44115730349107024 0.43242411434353156 0.4238042192853337
          0.4152996442253859 0.4069122680862238 0.3986359670849974 0.3904752400445948 0.38242410768270724 0.3744869253112996
          0.36665785616936936 0.3589411140371923 0.35133100269583756 0.3438315963731266 0.33643733741296517 0.32915216246995577
          0.3219706504716061 0.31489660247853374 0.30792473202261367 0.30105653426269213 0.2942933722168418 0.2876301576228332
          0.28107036120514384 0.27460902435766654 0.26824948913837354 0.2619869246180458 0.25582454616738476 0.2497576485548243
          0.24378932244303073 0.237914986318856 0.2321376081161654 0.22645272806099426 0.22086319333764215 0.21536466393209297
          0.20995986825831486 0.20464458408300548 0.1994197723443079 0.1942862786645857 0.18924005377961137 0.184283537827687
          0.17941279437705412 0.17463015172316312 0.16993178428748995 0.16531991050186778 0.16079081366177223 0.15634660431465447
          0.1519836726507548 0.14770402331237695 0.1435041514052911 0.13938595764588868 1.0587068676475884 1.043026391941887
          1.0274965901662816 1.0121265841524407 0.9969057983292607 0.9818431575775155 0.9669282822873789 0.9521652218593831
          0.9375578321914898 0.9230960239200209 0.9087882381924473 0.8946245766581227 0.8806132904411043 0.8667446702245426
          0.853026779088315 0.8394500947701345 0.8260224942849332 0.8127346404457515 0.7995942261818121 0.7865920974022479
          0.7737357649298057 0.7610162557904765 0.7484369142110365 0.7360009057612916 0.7236995254455701 0.7115398374655463
          0.699513312994162 0.6876268410540949 0.6758720670076651 0.6642557066777902 0.6527695776369334 0.6414202244874863
          0.6301996350328211 0.6191141846340371 0.6081560293461808 0.5973313772682957 0.5866325507278671 0.5760655925411161
          0.5656229893287328 0.555307353416852 0.5451211352996321 0.5350570643392801 0.5251207787914182 0.5153051673632132
          0.5056157099549451 0.4960454526395054 0.48659971894106624 0.4772717103190097 0.4680665959006352 0.45897773055258023
          0.4500101309845059 0.44115730349107024 0.43242411434353156 0.4238042192853337 0.4152996442253859 0.4069122680862238
          0.3986359670849974 0.3904752400445948 0.38242410768270724 0.3744869253112996 0.36665785616936936 0.3589411140371923
          0.35133100269583756 0.3438315963731266 0.33643733741296517 0.32915216246995577 0.3219706504716061 0.31489660247853374
          0.30792473202261367 0.30105653426269213 0.2942933722168418 0.2876301576228332 0.28107036120514384 0.27460902435766654
          0.26824948913837354 0.2619869246180458 0.25582454616738476 0.2497576485548243 0.24378932244303073 0.237914986318856
          0.2321376081161654 0.22645272806099426 0.22086319333764215 0.21536466393209297 0.20995986825831486 0.20464458408300548
          0.1994197723443079 0.1942862786645857 0.18924005377961137 0.184283537827687 0.17941279437705412 0.17463015172316312
          0.16993178428748995 0.16531991050186778 0.16079081366177223 0.15634660431465447 0.1519836726507548 0.14770402331237695
          0.1435041514052911 0.13938595764588868
        </DataArray>
        <DataArray type="Float64" Name="clumpId" format="ascii" RangeMin="-1" RangeMax="-1">
          -1 -1 -1 -1 -1 -1
          -1 -1 -1 -1 -1 -1
          -1 -1 -1 -1 -1 -1
          -1 -1 -1 -1 -1 -1
          -1 -1 -1 -1 -1 -1
          -1 -1 -1 -1 -1 -1
          -1 -1 -1 -1 -1 -1
          -1 -1 -1 -1 -1 -1
          -1 -1 -1 -1 -1 -1
          -1 -1 -1 -1 -1 -1
          -1 -1 -1 -1 -1 -1
          -1 -1 -1 -1 -1 -1
          -1 -1 -1 -1 -1 -1
          -1 -1 -1 -1 -1 -1
          -1 -1 -1 -1 -1 -1
          -1 -1 -1 -1 -1 -1
          -1 -1 -1 -1 -1 -1
          -1 -1 -1 -1 -1 -1
          -1 -1 -1 -1 -1 -1
          -1 -1 -1 -1 -1 -1
          -1 -1 -1 -1 -1 -1
          -1 -1 -1 -1 -1 -1
          -1 -1 -1 -1 -1 -1
          -1 -1 -1 -1 -1 -1
          -1 -1 -1 -1 -1 -1
          -1 -1 -1 -1 -1 -1
          -1 -1 -1 -1 -1 -1
          -1 -1 -1 -1 -1 -1
          -1 -1 -1 -1 -1 -1
          -1 -1 -1 -1 -1 -1
          -1 -1 -1 -1 -1 -1
          -1 -1 -1 -1 -1 -1
          -1 -1 -1 -1 -1 -1
          -1 -1
        </DataArray>
        <DataArray type="Float64" Name="color" NumberOfComponents="3" format="ascii" RangeMin="0.5" RangeMax="1.334634781503914">
          0.125 0.125 0.5 0.25 0.25 0.5
          0.375 0.375 0.5 0.5 0.5 0.5
          0.625 0.625 0.5 0.75 0.75 0.5
          0.875 0.875 0.5 0 0 0.5
          0.125 0.125 0.5 0.25 0.25 0.5
          0.375 0.375 0.5 0.5 0.5 0.5
          0.625 0.625 0.5 0.75 0.75 0.5
          0.875 0.875 0.5 0 0 0.5
          0.125 0.125 0.5 0.25 0.25 0.5
          0.375 0.375 0.5 0.5 0.5 0.5
          0.625 0.625 0.5 0.75 0.75 0.5
          0.875 0.875 0.5 0 0 0.5
          0.125 0.125 0.5 0.25 0.25 0.5
          0.375 0.375 0.5 0.5 0.5 0.5
          0.625 0.625 0.5 0.75 0.75 0.5
          0.875 0.875 0.5 0 0 0.5
          0.125 0.125 0.5 0.25 0.25 0.5
          0.375 0.375 0.5 0.5 0.5 0.5
          0.625 0.625 0.5 0.75 0.75 0.5
          0.875 0.875 0.5 0 0 0.5
          0.125 0.125 0.5 0.25 0.25 0.5
          0.375 0.375 0.5 0.5 0.5 0.5
          0.625 0.625 0.5 0.75 0.75 0.5
          0.875 0.875 0.5 0 0 0.5
          0.125 0.125 0.5 0.25 0.25 0.5
          0.375 0.375 0.5 0.5 0.5 0.5
          0.625 0.625 0.5 0.75 0.75 0.5
          0.875 0.875 0.5 0 0 0.5
          0.125 0.125 0.5 0.25 0.25 0.5
          0.375 0.375 0.5 0.5 0.5 0.5
          0.625 0.625 0.5 0.75 0.75 0.5
          0.875 0.875 0.5 0 0 0.5
          0.125 0.125 0.5 0.25 0.25 0.5
          0.375 0.375 0.5 0.5 0.5 0.5
          0.625 0.625 0.5 0.75 0.75 0.5
          0.875 0.875 0.5 0 0 0.5
          0.125 0.125 0.5 0.25 0.25 0.5
          0.375 0.375 0.5 0.5 0.5 0.5
          0.625 0.625 0.5 0.75 0.75 0.5
          0.875 0.875 0.5 0 0 0.5
          0.125 0.125 0.5 0.25 0.25 0.5
          0.375 0.375 0.5 0.5 0.5 0.5
          0.625 0.625 0.5 0.75 0.75 0.5
          0.875 0.875 0.5 0 0 0.5
          0.125 0.125 0.5 0.25 0.25 0.5
          0.375 0.375 0.5 0.5 0.5 0.5
          0.625 0.625 0.5 0.75 0.75 0.5
          0.875 0.875 0.5 0 0 0.5
          0.125 0.125 0.5 0.25 0.25 0.5
          0.375 0.375 0.5 0.5 0.5 0.5
          0.625 0.625 0.5 0.75 0.75 0.5
          0.875 0.875 0.5 0 0 0.5
          0.125 0.125 0.5 0.25 0.25 0.5
          0.375 0.375 0.5 0.5 0.5 0.5
          0.625 0.625 0.5 0.75 0.75 0.5
          0.875 0.875 0.5 0 0 0.5
          0.125 0.125 0.5 0.25 0.25 0.5
          0.375 0.375 0.5 0.5 0.5 0.5
          0.625 0.625 0.5 0.75 0.75 0.5
          0.875 0.875 0.5 0 0 0.5
          0.125 0.125 0.5 0.25 0.25 0.5
          0.375 0.375 0.5 0.5 0.5 0.5
          0.625 0.625 0.5 0.75 0.75 0.5
          0.875 0.875 0.5 0 0 0.5
          0.125 0.125 0.5 0.25 0.25 0.5
          0.375 0.375 0.5 0.5 0.5 0.5
          0.625 0.625 0.5 0.75 0.75 0.5
          0.875 0.875 0.5 0 0 0.5
          0.125 0.125 0.5 0.25 0.25 0.5
          0.375 0.375 0.5 0.5 0.5 0.5
          0.625 0.625 0.5 0.75 0.75 0.5
          0.875 0.875 0.5 0 0 0.5
          0.125 0.125 0.5 0.25 0.25 0.5
          0.375 0.375 0.5 0.5 0.5 0.5
          0.625 0.625 0.5 0.75 0.75 0.5
          0.875 0.875 0.5 0 0 0.5
          0.125 0.125 0.5 0.25 0.25 0.5
          0.375 0.375 0.5 0.5 0.5 0.5
          0.625 0.625 0.5 0.75 0.75 0.5
          0.875 0.875 0.5 0 0 0.5
          0.125 0.125 0.5 0.25 0.25 0.5
          0.375 0.375 0.5 0.5 0.5 0.5
          0.625 0.625 0.5 0.75 0.75 0.5
          0.875 0.875 0.5 0 0 0.5
          0.125 0.125 0.5 0.25 0.25 0.5
          0.375 0.375 0.5 0.5 0.5 0.5
          0.625 0.625 0.5 0.75 0.75 0.5
          0.875 0.875 0.5 0 0 0.5
          0.125 0.125 0.5 0.25 0.25 0.5
          0.375 0.375 0.5 0.5 0.5 0.5
          0.625 0.625 0.5 0.75 0.75 0.5
          0.875 0.875 0.5 0 0 0.5
          0.125 0.125 0.5 0.25 0.25 0.5
          0.375 0.375 0.5 0.5 0.5 0.5
          0.625 0.625 0.5 0.75 0.75 0.5
          0.875 0.875 0.5 0 0 0.5
          0.125 0.125 0.5 0.25 0.25 0.5
          0.375 0.375 0.5 0.5 0.5 0.5
          0.625 0.625 0.5 0.75 0.75 0.5
          0.875 0.875 0.5 0 0 0.5
          <InformationKey name="L2_NORM_RANGE" location="vtkDataArray" length="2">
            <Value index="0">
              0.5
            </Value>
            <Value index="1">
              1.3346347815
            </Value>
          </InformationKey>
        </DataArray>
        <DataArray type="Float64" Name="linVelVec" NumberOfComponents="3" format="ascii" RangeMin="0.011657400313449156" RangeMax="0.3852616096696951">
          0 -0.020000000000000004 0 0 -0.020000000000000004 0
          0 -0.020000000000000004 0 0 -0.020000000000000004 0
          0 -0.020000000000000004 0 0 -0.020000000000000004 0
          0 -0.020000000000000004 0 0.03790774296495875 -0.015283690632989 0.02305027079724423
          0 -0.020000000000000004 0 0 -0.020000000000000004 0
          -0.0119058804610588 0.02182266255609974 0.002627732781843679 0 -0.020000000000000004 0
          0 -0.020000000000000004 0 -0.0020062478536903767 -0.0008717103188855536 -0.020226016861606702
          -0.01933878202207428 0.005103745775244183 0.012001555427130857 0 -0.020000000000000004 0
          0.02945187486687431 -0.03811604971519808 0.021243207540221538 0 -0.020000000000000004 0
          0 -0.020000000000000004 0 0 -0.020000000000000004 0
          0 -0.020000000000000004 0 0.02043478570894312 -0.015541461361186318 0.028014029013124393
          0 -0.020000000000000004 0 0 -0.020000000000000004 0
          0 -0.020000000000000004 0 0 -0.020000000000000004 0
          0 -0.020000000000000004 0 0 -0.020000000000000004 0
          0 -0.020000000000000004 0 0 -0.020000000000000004 0
          0 -0.020000000000000004 0 0.042349167423674776 -0.019945744208833677 -0.011755897347362217
          0 -0.020000000000000004 0 0.024890251719651525 -0.10857846404007049 -0.07802291226367283
          0 -0.020000000000000004 0 0.0058831383803663985 -0.010780873490983438 -0.00970672305907789
          0 -0.020000000000000004 0 0.06859621601069538 -0.00400465116103188 -0.05489105243015803
          0 -0.020000000000000004 0 -0.06152919237591715 -0.004516527931954248 -0.034405579174956485
          -0.06859664415272139 0.038289203402190705 -0.06675841433466127 0.01723114111832194 0.04345874190420371 0.002029151822455681
          0 -0.020000000000000004 0 -0.03879258411153433 0.15479029745533768 -0.04058193573902033
          -0.0172753423019145 -0.02070112038484972 -0.012398925891465183 0 -0.020000000000000004 0
          0.0017680042042030073 -0.02063713156214207 0.00008916088192443843 0 -0.020000000000000004 0
          0 -0.020000000000000004 0 0 -0.020000000000000004 0
          0 -0.020000000000000004 0 0 -0.020000000000000004 0
          -0.02447776914247816 -0.01885934997612523 -0.020960281260634914 0 -0.020000000000000004 0
          0 -0.020000000000000004 0 0 -0.020000000000000004 0
          0 -0.020000000000000004 0 -0.06330229256410078 0.045727180908655074 0.04938066269775869
          0 -0.020000000000000004 0 -0.0033743441610203616 -0.013618653857678692 -0.02395215726756173
          0 -0.020000000000000004 0 0 -0.020000000000000004 0
          0 -0.020000000000000004 0 -0.004980904292996097 -0.023186097672266173 -0.009077019393578047
          -0.0005470941598438267 -0.03607277176966944 0.019136258319289987 0 -0.020000000000000004 0
          0.025096118328742017 -0.08209900872508147 0.021531741015317653 -0.05253027550402256 -0.021121868741643707 0.05306357259744978
          0.06882496313045354 -0.1126299479397876 -0.027113796585793187 -0.035963921652892326 -0.03900067887679687 -0.03575541632955554
          0 -0.020000000000000004 0 0 -0.020000000000000004 0
          0 -0.020000000000000004 0 0 -0.020000000000000004 0
          0 -0.020000000000000004 0 -0.02271912985781619 -0.06540245215687022 -0.06535361673323056
          0 -0.020000000000000004 0 0.08593573281879771 0.029735007362036187 0.013982959580632632
          0 -0.020000000000000004 0 0 -0.020000000000000004 0
          0 -0.020000000000000004 0 0 -0.020000000000000004 0
          0 -0.020000000000000004 0 0 -0.020000000000000004 0
          0 -0.020000000000000004 0 0 -0.020000000000000004 0
          0 -0.020000000000000004 0 0 -0.020000000000000004 0
          0 -0.020000000000000004 0 0 -0.020000000000000004 0
          0 -0.020000000000000004 0 0 -0.020000000000000004 0
          -0.1077638485043621 -0.1389154648370668 -0.1202891192692345 0 -0.020000000000000004 0
          0 -0.020000000000000004 0 0 -0.020000000000000004 0
          0 -0.020000000000000004 0 -0.3810680389585955 0.04995690165141488 0.026794879117579846
          0 -0.020000000000000004 0 0 -0.020000000000000004 0
          -0.025657349834811466 -0.020032871007842783 0.007122340041442817 0 -0.020000000000000004 0
          0 -0.020000000000000004 0 0.01975051279261225 -0.10899118439726976 0.02066152743673945
          0 -0.020000000000000004 0 0.06338832937935494 -0.018409182804545 0.013407519835703397
          0 -0.020000000000000004 0 0 -0.020000000000000004 0
          0 -0.020000000000000004 0 0 -0.020000000000000004 0
          0 -0.020000000000000004 0 -0.01933756100153924 -0.035604299592593945 -0.008962754754248143
          0 -0.020000000000000004 0 0.043142440701237926 -0.056659789008084355 0.04198632407336993
          0.026672063167926925 -0.0610380068175923 -0.017709263098504607 0 -0.020000000000000004 0
          -0.01865555478859926 0.04639066601664083 0.05847914801728653 0 -0.020000000000000004 0
          0 -0.020000000000000004 0 0 -0.020000000000000004 0
          0 -0.020000000000000004 0 0 -0.020000000000000004 0
          0 -0.020000000000000004 0 -0.053690042380322676 -0.032519509194477186 0.04296305397977336
          0 -0.020000000000000004 0 0.023247616524744504 -0.019503509660922423 -0.02348363063665997
          0 -0.020000000000000004 0 -0.035379525182015696 0.001762187975964345 -0.02551873520831026
          0 -0.020000000000000004 0 0 -0.020000000000000004 0
          0 -0.020000000000000004 0 0 -0.020000000000000004 0
          -0.000152248081278063 -0.04379835466969056 0.031895803292294994 0 -0.020000000000000004 0
          0.030111521014961406 0.013227520807224124 0.03361134919564548 0 -0.020000000000000004 0
          0 -0.020000000000000004 0 0 -0.020000000000000004 0
          0.019142032441369073 -0.009886764436368668 0.0190310541197602 0 -0.020000000000000004 0
          0 -0.020000000000000004 0 0 -0.020000000000000004 0
          0 -0.020000000000000004 0 0 -0.020000000000000004 0
          0 -0.020000000000000004 0 0.0003710605580045616 -0.009098820460382942 -0.012978955381468782
          0 -0.020000000000000004 0 -0.03258354470183486 -0.02710920070862623 -0.04466875158999878
          0 -0.020000000000000004 0 0 -0.020000000000000004 0
          0 -0.020000000000000004 0 0 -0.020000000000000004 0
          0 -0.020000000000000004 0 0 -0.020000000000000004 0
          0.04670266225436821 -0.03460509296448853 -0.03503768364399623 0 -0.020000000000000004 0
          0 -0.020000000000000004 0 -0.09103409614172246 -0.029879512051633226 -0.05386947627458575
          0 -0.020000000000000004 0 -0.017867359701722676 -0.059932754557311854 0.08054876024438383
          0 -0.020000000000000004 0 0 -0.020000000000000004 0
          0 -0.020000000000000004 0 -0.061637465991963666 0.0629564594920895 0.0242822609552604
          0 -0.020000000000000004 0 0 -0.020000000000000004 0
          0 -0.020000000000000004 0 0 -0.020000000000000004 0
          0 -0.020000000000000004 0 0 -0.020000000000000004 0
          0.03596675508798903 -0.02167603018931239 0.03079828469206238 0 -0.020000000000000004 0
          0 -0.020000000000000004 0 0 -0.020000000000000004 0
          0 -0.020000000000000004 0 0 -0.020000000000000004 0
          0 -0.020000000000000004 0 0 -0.020000000000000004 0
          0.06766702813096327 -0.10783882405970655 -0.04199383331256307 0 -0.020000000000000004 0
          0 -0.020000000000000004 0 0 -0.020000000000000004 0
          -0.0038952182835490243 -0.018596289248644246 -0.0001964368051975233 0.050240015844693814 -0.1964818012710733 -0.011088414420692696
          0 -0.020000000000000004 0 -0.010242456986924423 -0.004354300908345994 0.0034680139184531515
          0 -0.020000000000000004 0 0 -0.020000000000000004 0
          0.0066774857888927345 -0.032628038559786646 0.04739889653671347 0 -0.020000000000000004 0
          0 -0.020000000000000004 0 0 -0.020000000000000004 0
          0 -0.020000000000000004 0 0 -0.020000000000000004 0
          0 -0.020000000000000004 0 0 -0.020000000000000004 0
          0.011268264837750005 -0.012792113588587247 0.020534877292875245 0 -0.020000000000000004 0
          0.012786050449574605 -0.031021483970380282 -0.017908410690890015 0.06266545504452997 -0.01745672026697066 0.044976494211982264
          <InformationKey name="L2_NORM_RANGE" location="vtkDataArray" length="2">
            <Value index="0">
              0.011657400313
            </Value>
            <Value index="1">
              0.38526160967
            </Value>
          </InformationKey>
        </DataArray>
        <DataArray type="Float64" Name="angVelVec" NumberOfComponents="3" format="ascii" RangeMin="0" RangeMax="0.004495641700068654">
          0 0 0 0 0 0
          0 0 0 0 0 0
          0 0 0 0 0 0
          0 0 0 0.000006886638512523328 0.000014896747898252485 -0.000014373564246570995
          0 0 0 0 0 0
          2.6132758416406533e-18 6.530301767674722e-19 6.15623421043533e-21 0 0 0
          0 0 0 -0.0001907982608379954 -0.00009938077392281681 -0.00007506152305829274
          3.2244867744612948e-18 -9.806196328648053e-18 1.3104764303356261e-17 0 0 0
          6.88248127457846e-18 -2.0643172653764903e-17 -7.457027238076259e-21 0 0 0
          0 0 0 0 0 0
          0 0 0 1.9960011915318705e-18 1.597628089335697e-17 2.0017324551993896e-18
          0 0 0 0 0 0
          0 0 0 0 0 0
          0 0 0 0 0 0
          0 0 0 0 0 0
          0 0 0 2.0523987422467695e-19 1.5022239683742467e-17 6.646475203463419e-19
          0 0 0 3.9317899554060966e-17 9.868779685340011e-18 0
          0 0 0 0.0005971447943145004 -0.000799336410026549 0.0015890136698362392
          0 0 0 -8.000003720570721e-18 3.2124516601524634e-17 -8.028841344144471e-18
          0 0 0 0.0005534877654265068 -0.0014843393177822804 -0.0003544840238710755
          1.4351567419812637e-17 -2.902694809723215e-20 -1.438059436790987e-17 0.00019732818159075624 -0.000042323713825735854 -0.0003520584825697825
          0 0 0 4.904180766764989e-18 -1.3383692256069723e-18 -4.9620754733613755e-18
          4.79209456173791e-19 -7.697733109782478e-18 -2.3912032021565244e-18 0 0 0
          -1.8065821659701624e-20 2.9472508759361903e-24 -1.1560624489062274e-18 0 0 0
          0 0 0 0 0 0
          0 0 0 0 0 0
          3.412424068265807e-18 2.7279612742268464e-17 -3.980516007770905e-18 0 0 0
          0 0 0 0 0 0
          0 0 0 -0.00027107343382596765 -0.0000616181091967522 -0.00026548013958802545
          0 0 0 -5.7574967482239506e-18 8.638050393497474e-18 1.4392012343098249e-18
          0 0 0 0 0 0
          0 0 0 -7.009123919611741e-18 1.969892729486625e-21 2.628278745902758e-18
          2.7387017552382423e-17 4.2744472658760495e-19 -3.482345765719034e-23 0 0 0
          -0.0005372936577085414 0.00011524082787323584 0.0009585999744302011 -2.597882614034456e-18 -2.384501080119421e-17 -5.560535159190153e-18
          8.420332951854773e-18 8.74892219369745e-18 6.731662096668287e-17 -7.020211164851402e-18 -4.186862584408475e-17 -5.316861834679868e-21
          0 0 0 0 0 0
          0 0 0 0 0 0
          0 0 0 0.00032401641246493525 0.002463685234201808 -0.0018242100114050663
          0 0 0 -0.0023125674675791973 0.003633650271398019 0.0012881815510476838
          0 0 0 0 0 0
          0 0 0 0 0 0
          0 0 0 0 0 0
          0 0 0 0 0 0
          0 0 0 0 0 0
          0 0 0 0 0 0
          0 0 0 0 0 0
          2.279407447823044e-19 -6.172843251311906e-17 1.2331352187385697e-16 0 0 0
          0 0 0 0 0 0
          0 0 0 0.00001454383607125622 0.00011058524444739692 -0.00008188168976868305
          0 0 0 0 0 0
          1.0996077168830356e-19 8.047360270500426e-18 3.560900254877631e-19 0 0 0
          0 0 0 4.4309343517080675e-18 -1.1441968457068323e-18 -4.4497284560250015e-18
          0 0 0 0.00003187619555954155 0.0002423732542593841 -0.00017946274580002704
          0 0 0 0 0 0
          0 0 0 0 0 0
          0 0 0 -0.00004527655697229447 0.000009711091567671565 0.00008077911535572879
          0 0 0 9.107125935309319e-18 -1.340101761102211e-20 -9.120526952920341e-18
          0.0002635455843446277 0.00006764083433165438 0.0002754259034235513 0 0 0
          3.1087054219536307e-17 7.79607124488942e-18 0 0 0 0
          0 0 0 0 0 0
          0 0 0 0 0 0
          0 0 0 -6.162818707569167e-18 2.4734036897099905e-17 -6.181988413367357e-18
          0 0 0 -9.609602967644282e-19 -8.809809412441492e-18 -2.0575670480049676e-18
          0 0 0 8.599334972607107e-18 -2.579220691249173e-17 -1.0122726083981173e-20
          0 0 0 0 0 0
          0 0 0 0 0 0
          0.00006619895329415345 0.00003448093909428376 0.000026043184237096016 0 0 0
          2.7222079476690984e-20 -1.6992925689983727e-17 3.3968732462986265e-17 0 0 0
          0 0 0 0 0 0
          -3.17940234586458e-18 -1.8988098136484137e-17 -1.8586190457679643e-21 0 0 0
          0 0 0 0 0 0
          0 0 0 0 0 0
          0 0 0 1.6552003714745512e-17 2.583750959071644e-19 -1.823236814320716e-23
          0 0 0 3.5364468437630225e-18 2.8309575504893043e-17 3.5489196484969765e-18
          0 0 0 0 0 0
          0 0 0 0 0 0
          0 0 0 0 0 0
          -0.0005329817070503356 -0.0019194661332012802 0.00008968381264605389 0 0 0
          0 0 0 -0.00027450114983829424 -0.0017512604386423877 0.0013791900863577052
          0 0 0 -0.000017887193000323988 0.0020745431718720594 0.0001638100600668027
          0 0 0 0 0 0
          0 0 0 7.542785838824351e-18 7.816198100780675e-18 6.030397558236674e-17
          0 0 0 0 0 0
          0 0 0 0 0 0
          0 0 0 0 0 0
          5.5420681938574655e-18 4.4298981621145595e-17 -6.464520533740338e-18 0 0 0
          0 0 0 0 0 0
          0 0 0 0 0 0
          0 0 0 0 0 0
          1.3826018574529832e-17 -4.254851147034464e-17 5.69719613625716e-17 0 0 0
          0 0 0 0 0 0
          -5.161853342722852e-20 1.0994224894815324e-23 -3.303026077280675e-18 1.1717373905098584e-17 2.9261613334120066e-18 6.783631015558226e-20
          0 0 0 0.0006776195471676582 0.0002899303296774945 0.0006932873468667412
          0 0 0 0 0 0
          -1.375035772518677e-17 2.0631167539094284e-17 3.437049961928306e-18 0 0 0
          0 0 0 0 0 0
          0 0 0 0 0 0
          0 0 0 0 0 0
          -2.0425157434991298e-17 7.679931123724775e-21 7.658877606747617e-18 0 0 0
          -0.002509314881326288 -0.001307022683681423 -0.000987184034057315 2.44315422796092e-18 -3.9350653024469755e-17 -1.2174287159590375e-17
          <InformationKey name="L2_NORM_RANGE" location="vtkDataArray" length="2">
            <Value index="0">
              0
            </Value>
            <Value index="1">
              0.0044956417001
            </Value>
          </InformationKey>
        </DataArray>
        <DataArray type="Float64" Name="linVelLen" format="ascii" RangeMin="0.011657400313449156" RangeMax="0.3852616096696951">
          0.020000000000000004 0.020000000000000004 0.020000000000000004 0.020000000000000004 0.020000000000000004 0.020000000000000004
          0.020000000000000004 0.04692444096511524 0.020000000000000004 0.020000000000000004 0.024997671294806546 0.020000000000000004
          0.020000000000000004 0.020343958990729594 0.023325394824227956 0.020000000000000004 0.052645228137623255 0.020000000000000004
          0.020000000000000004 0.020000000000000004 0.020000000000000004 0.03799872773869999 0.020000000000000004 0.020000000000000004
          0.020000000000000004 0.020000000000000004 0.020000000000000004 0.020000000000000004 0.020000000000000004 0.020000000000000004